MODEL 1
REMARK VINA RESULT:    -8.253      0.000      0.000
REMARK INTER + INTRA:         -12.246
REMARK INTER:                 -11.148
REMARK INTRA:                  -1.098
REMARK UNBOUND:                -1.098
REMARK SMILES COc1cc2nccc(Oc3ccc(NC(=O)Nc4cc(C)on4)c(Cl)c3)c2cc1OC
REMARK SMILES IDX 11 1 12 2 13 3 14 4 25 5 26 6 27 7 10 8 9 9 3 10 4 11 30 12
REMARK SMILES IDX 5 13 29 14 6 15 28 16 7 17 8 18 2 19 1 20 31 21 32 22 15 23
REMARK SMILES IDX 16 24 17 25 18 26 19 29 20 30 24 31 21 32 23 33 22 34
REMARK H PARENT 15 27 18 28
ROOT
ATOM      1  C   UNL     1     -10.082  -0.005 -13.479  1.00  0.00    +0.129 A 
ATOM      2  C   UNL     1      -9.014  -0.021 -14.372  1.00  0.00    +0.049 A 
ATOM      3  C   UNL     1      -8.625   1.151 -15.031  1.00  0.00    +0.031 A 
ATOM      4  C   UNL     1      -9.311   2.349 -14.812  1.00  0.00    +0.061 A 
ATOM      5  C   UNL     1     -10.406   2.340 -13.925  1.00  0.00    +0.068 A 
ATOM      6 Cl   UNL     1     -11.313   3.785 -13.621  1.00  0.00    -0.082 Cl
ATOM      7  C   UNL     1     -10.796   1.172 -13.265  1.00  0.00    +0.069 A 
ENDROOT
BRANCH   1   8
ATOM      8  O   UNL     1     -10.417  -1.207 -12.894  1.00  0.00    -0.457 OA
BRANCH   8   9
ATOM      9  C   UNL     1      -9.992  -1.409 -11.597  1.00  0.00    +0.138 A 
ATOM     10  C   UNL     1     -12.677  -1.050  -8.352  1.00  0.00    +0.162 A 
ATOM     11  C   UNL     1     -11.332  -1.409  -8.179  1.00  0.00    +0.079 A 
ATOM     12  C   UNL     1     -13.138  -0.774  -9.646  1.00  0.00    +0.161 A 
ATOM     13  C   UNL     1     -10.447  -1.528  -9.245  1.00  0.00    +0.078 A 
ATOM     14  C   UNL     1     -12.266  -0.913 -10.731  1.00  0.00    +0.064 A 
ATOM     15  N   UNL     1      -9.173  -1.882  -8.993  1.00  0.00    -0.256 NA
ATOM     16  C   UNL     1     -10.918  -1.281 -10.545  1.00  0.00    +0.047 A 
ATOM     17  C   UNL     1      -8.325  -2.018 -10.036  1.00  0.00    +0.115 A 
ATOM     18  C   UNL     1      -8.681  -1.802 -11.348  1.00  0.00    +0.068 A 
BRANCH  10  19
ATOM     19  O   UNL     1     -13.576  -0.970  -7.322  1.00  0.00    -0.493 OA
ATOM     20  C   UNL     1     -13.542   0.184  -6.492  1.00  0.00    +0.278 C 
ENDBRANCH  10  19
BRANCH  12  21
ATOM     21  O   UNL     1     -14.407  -0.413 -10.017  1.00  0.00    -0.493 OA
ATOM     22  C   UNL     1     -14.625   0.967 -10.291  1.00  0.00    +0.278 C 
ENDBRANCH  12  21
ENDBRANCH   8   9
ENDBRANCH   1   8
BRANCH   4  23
ATOM     23  N   UNL     1      -8.973   3.569 -15.445  1.00  0.00    -0.306 N 
ATOM     24  C   UNL     1      -9.303   3.998 -16.720  1.00  0.00    +0.324 C 
ATOM     25  O   UNL     1      -9.942   3.344 -17.535  1.00  0.00    -0.248 OA
ATOM     26  N   UNL     1      -8.811   5.263 -16.955  1.00  0.00    -0.289 N 
ATOM     27  H   UNL     1      -8.378   4.177 -14.897  1.00  0.00    +0.171 HD
ATOM     28  H   UNL     1      -8.325   5.772 -16.236  1.00  0.00    +0.173 HD
BRANCH  26  29
ATOM     29  C   UNL     1      -8.956   5.971 -18.128  1.00  0.00    +0.177 A 
ATOM     30  C   UNL     1      -9.777   7.082 -18.419  1.00  0.00    +0.095 A 
ATOM     31  N   UNL     1      -8.243   5.611 -19.202  1.00  0.00    -0.062 NA
ATOM     32  C   UNL     1      -9.516   7.371 -19.735  1.00  0.00    +0.135 A 
ATOM     33  O   UNL     1      -8.596   6.491 -20.209  1.00  0.00    -0.360 OA
ATOM     34  C   UNL     1     -10.004   8.386 -20.684  1.00  0.00    +0.091 C 
ENDBRANCH  26  29
ENDBRANCH   4  23
TORSDOF 6
ENDMDL
MODEL 2
REMARK VINA RESULT:    -8.122      3.675     10.871
REMARK INTER + INTRA:         -12.069
REMARK INTER:                 -12.026
REMARK INTRA:                  -0.043
REMARK UNBOUND:                -1.098
REMARK SMILES COc1cc2nccc(Oc3ccc(NC(=O)Nc4cc(C)on4)c(Cl)c3)c2cc1OC
REMARK SMILES IDX 11 1 12 2 13 3 14 4 25 5 26 6 27 7 10 8 9 9 3 10 4 11 30 12
REMARK SMILES IDX 5 13 29 14 6 15 28 16 7 17 8 18 2 19 1 20 31 21 32 22 15 23
REMARK SMILES IDX 16 24 17 25 18 26 19 29 20 30 24 31 21 32 23 33 22 34
REMARK H PARENT 15 27 18 28
ROOT
ATOM      1  C   UNL     1     -12.272   1.868 -11.927  1.00  0.00    +0.129 A 
ATOM      2  C   UNL     1     -13.622   2.212 -11.939  1.00  0.00    +0.049 A 
ATOM      3  C   UNL     1     -14.522   1.577 -11.075  1.00  0.00    +0.031 A 
ATOM      4  C   UNL     1     -14.082   0.581 -10.199  1.00  0.00    +0.061 A 
ATOM      5  C   UNL     1     -12.717   0.227 -10.219  1.00  0.00    +0.068 A 
ATOM      6 Cl   UNL     1     -12.107  -1.012  -9.173  1.00  0.00    -0.082 Cl
ATOM      7  C   UNL     1     -11.816   0.860 -11.080  1.00  0.00    +0.069 A 
ENDROOT
BRANCH   1   8
ATOM      8  O   UNL     1     -11.459   2.521 -12.827  1.00  0.00    -0.457 OA
BRANCH   8   9
ATOM      9  C   UNL     1     -10.676   1.732 -13.646  1.00  0.00    +0.138 A 
ATOM     10  C   UNL     1      -8.674   3.385 -16.982  1.00  0.00    +0.162 A 
ATOM     11  C   UNL     1      -8.556   2.033 -16.627  1.00  0.00    +0.079 A 
ATOM     12  C   UNL     1      -9.509   4.210 -16.216  1.00  0.00    +0.161 A 
ATOM     13  C   UNL     1      -9.213   1.487 -15.531  1.00  0.00    +0.078 A 
ATOM     14  C   UNL     1     -10.157   3.681 -15.095  1.00  0.00    +0.064 A 
ATOM     15  N   UNL     1      -9.042   0.181 -15.257  1.00  0.00    -0.256 NA
ATOM     16  C   UNL     1     -10.025   2.322 -14.746  1.00  0.00    +0.047 A 
ATOM     17  C   UNL     1      -9.665  -0.338 -14.176  1.00  0.00    +0.115 A 
ATOM     18  C   UNL     1     -10.482   0.390 -13.340  1.00  0.00    +0.068 A 
BRANCH  10  19
ATOM     19  O   UNL     1      -8.001   3.953 -18.031  1.00  0.00    -0.493 OA
ATOM     20  C   UNL     1      -6.711   4.498 -17.781  1.00  0.00    +0.278 C 
ENDBRANCH  10  19
BRANCH  12  21
ATOM     21  O   UNL     1      -9.752   5.547 -16.398  1.00  0.00    -0.493 OA
ATOM     22  C   UNL     1     -11.112   5.961 -16.358  1.00  0.00    +0.278 C 
ENDBRANCH  12  21
ENDBRANCH   8   9
ENDBRANCH   1   8
BRANCH   4  23
ATOM     23  N   UNL     1     -14.937  -0.103  -9.301  1.00  0.00    -0.306 N 
ATOM     24  C   UNL     1     -15.556   0.386  -8.163  1.00  0.00    +0.324 C 
ATOM     25  O   UNL     1     -15.428   1.524  -7.729  1.00  0.00    -0.248 OA
ATOM     26  N   UNL     1     -16.337  -0.585  -7.575  1.00  0.00    -0.289 N 
ATOM     27  H   UNL     1     -15.068  -1.084  -9.510  1.00  0.00    +0.171 HD
ATOM     28  H   UNL     1     -16.437  -1.494  -7.994  1.00  0.00    +0.173 HD
BRANCH  26  29
ATOM     29  C   UNL     1     -17.074  -0.426  -6.422  1.00  0.00    +0.177 A 
ATOM     30  C   UNL     1     -18.439  -0.104  -6.259  1.00  0.00    +0.095 A 
ATOM     31  N   UNL     1     -16.477  -0.584  -5.235  1.00  0.00    -0.062 NA
ATOM     32  C   UNL     1     -18.629  -0.078  -4.900  1.00  0.00    +0.135 A 
ATOM     33  O   UNL     1     -17.454  -0.365  -4.282  1.00  0.00    -0.360 OA
ATOM     34  C   UNL     1     -19.786   0.184  -4.026  1.00  0.00    +0.091 C 
ENDBRANCH  26  29
ENDBRANCH   4  23
TORSDOF 6
ENDMDL
MODEL 3
REMARK VINA RESULT:    -7.911      3.054     10.866
REMARK INTER + INTRA:         -11.783
REMARK INTER:                 -12.525
REMARK INTRA:                   0.742
REMARK UNBOUND:                -1.098
REMARK SMILES COc1cc2nccc(Oc3ccc(NC(=O)Nc4cc(C)on4)c(Cl)c3)c2cc1OC
REMARK SMILES IDX 11 1 12 2 13 3 14 4 25 5 26 6 27 7 10 8 9 9 3 10 4 11 30 12
REMARK SMILES IDX 5 13 29 14 6 15 28 16 7 17 8 18 2 19 1 20 31 21 32 22 15 23
REMARK SMILES IDX 16 24 17 25 18 26 19 29 20 30 24 31 21 32 23 33 22 34
REMARK H PARENT 15 27 18 28
ROOT
ATOM      1  C   UNL     1      -9.917   1.637 -13.646  1.00  0.00    +0.129 A 
ATOM      2  C   UNL     1      -9.206   0.441 -13.570  1.00  0.00    +0.049 A 
ATOM      3  C   UNL     1      -9.620  -0.574 -12.700  1.00  0.00    +0.031 A 
ATOM      4  C   UNL     1     -10.741  -0.397 -11.885  1.00  0.00    +0.061 A 
ATOM      5  C   UNL     1     -11.432   0.830 -11.955  1.00  0.00    +0.068 A 
ATOM      6 Cl   UNL     1     -12.820   1.125 -10.960  1.00  0.00    -0.082 Cl
ATOM      7  C   UNL     1     -11.023   1.845 -12.824  1.00  0.00    +0.069 A 
ENDROOT
BRANCH   1   8
ATOM      8  O   UNL     1      -9.427   2.593 -14.508  1.00  0.00    -0.457 OA
BRANCH   8   9
ATOM      9  C   UNL     1     -10.310   3.572 -14.919  1.00  0.00    +0.138 A 
ATOM     10  C   UNL     1      -9.403   6.065 -18.211  1.00  0.00    +0.162 A 
ATOM     11  C   UNL     1     -10.612   6.159 -17.506  1.00  0.00    +0.079 A 
ATOM     12  C   UNL     1      -8.451   5.126 -17.789  1.00  0.00    +0.161 A 
ATOM     13  C   UNL     1     -10.912   5.341 -16.423  1.00  0.00    +0.078 A 
ATOM     14  C   UNL     1      -8.749   4.279 -16.717  1.00  0.00    +0.064 A 
ATOM     15  N   UNL     1     -12.097   5.494 -15.804  1.00  0.00    -0.256 NA
ATOM     16  C   UNL     1      -9.970   4.380 -16.021  1.00  0.00    +0.047 A 
ATOM     17  C   UNL     1     -12.392   4.679 -14.767  1.00  0.00    +0.115 A 
ATOM     18  C   UNL     1     -11.544   3.705 -14.292  1.00  0.00    +0.068 A 
BRANCH  10  19
ATOM     19  O   UNL     1      -9.106   6.830 -19.307  1.00  0.00    -0.493 OA
ATOM     20  C   UNL     1      -9.261   8.239 -19.200  1.00  0.00    +0.278 C 
ENDBRANCH  10  19
BRANCH  12  21
ATOM     21  O   UNL     1      -7.222   4.882 -18.345  1.00  0.00    -0.493 OA
ATOM     22  C   UNL     1      -6.285   4.177 -17.539  1.00  0.00    +0.278 C 
ENDBRANCH  12  21
ENDBRANCH   8   9
ENDBRANCH   1   8
BRANCH   4  23
ATOM     23  N   UNL     1     -11.213  -1.379 -10.981  1.00  0.00    -0.306 N 
ATOM     24  C   UNL     1     -11.373  -2.738 -11.195  1.00  0.00    +0.324 C 
ATOM     25  O   UNL     1     -11.145  -3.313 -12.252  1.00  0.00    -0.248 OA
ATOM     26  N   UNL     1     -11.829  -3.363 -10.054  1.00  0.00    -0.289 N 
ATOM     27  H   UNL     1     -11.506  -1.018 -10.083  1.00  0.00    +0.171 HD
ATOM     28  H   UNL     1     -11.963  -2.849  -9.200  1.00  0.00    +0.173 HD
BRANCH  26  29
ATOM     29  C   UNL     1     -12.101  -4.709  -9.936  1.00  0.00    +0.177 A 
ATOM     30  C   UNL     1     -11.420  -5.709  -9.209  1.00  0.00    +0.095 A 
ATOM     31  N   UNL     1     -13.156  -5.222 -10.581  1.00  0.00    -0.062 NA
ATOM     32  C   UNL     1     -12.129  -6.859  -9.453  1.00  0.00    +0.135 A 
ATOM     33  O   UNL     1     -13.171  -6.571 -10.276  1.00  0.00    -0.360 OA
ATOM     34  C   UNL     1     -11.996  -8.262  -9.027  1.00  0.00    +0.091 C 
ENDBRANCH  26  29
ENDBRANCH   4  23
TORSDOF 6
ENDMDL
MODEL 4
REMARK VINA RESULT:    -7.907      3.524     10.984
REMARK INTER + INTRA:         -11.778
REMARK INTER:                 -11.769
REMARK INTRA:                  -0.009
REMARK UNBOUND:                -1.098
REMARK SMILES COc1cc2nccc(Oc3ccc(NC(=O)Nc4cc(C)on4)c(Cl)c3)c2cc1OC
REMARK SMILES IDX 11 1 12 2 13 3 14 4 25 5 26 6 27 7 10 8 9 9 3 10 4 11 30 12
REMARK SMILES IDX 5 13 29 14 6 15 28 16 7 17 8 18 2 19 1 20 31 21 32 22 15 23
REMARK SMILES IDX 16 24 17 25 18 26 19 29 20 30 24 31 21 32 23 33 22 34
REMARK H PARENT 15 27 18 28
ROOT
ATOM      1  C   UNL     1     -12.321   1.734 -11.948  1.00  0.00    +0.129 A 
ATOM      2  C   UNL     1     -13.686   1.867 -11.706  1.00  0.00    +0.049 A 
ATOM      3  C   UNL     1     -14.281   1.204 -10.626  1.00  0.00    +0.031 A 
ATOM      4  C   UNL     1     -13.519   0.389  -9.786  1.00  0.00    +0.061 A 
ATOM      5  C   UNL     1     -12.144   0.244 -10.063  1.00  0.00    +0.068 A 
ATOM      6 Cl   UNL     1     -11.142  -0.766  -9.073  1.00  0.00    -0.082 Cl
ATOM      7  C   UNL     1     -11.546   0.905 -11.139  1.00  0.00    +0.069 A 
ENDROOT
BRANCH   1   8
ATOM      8  O   UNL     1     -11.820   2.397 -13.046  1.00  0.00    -0.457 OA
BRANCH   8   9
ATOM      9  C   UNL     1     -10.876   1.730 -13.801  1.00  0.00    +0.138 A 
ATOM     10  C   UNL     1      -8.708   3.732 -16.828  1.00  0.00    +0.162 A 
ATOM     11  C   UNL     1      -8.490   2.383 -16.513  1.00  0.00    +0.079 A 
ATOM     12  C   UNL     1      -9.701   4.433 -16.129  1.00  0.00    +0.161 A 
ATOM     13  C   UNL     1      -9.201   1.722 -15.519  1.00  0.00    +0.078 A 
ATOM     14  C   UNL     1     -10.408   3.789 -15.109  1.00  0.00    +0.064 A 
ATOM     15  N   UNL     1      -8.928   0.427 -15.276  1.00  0.00    -0.256 NA
ATOM     16  C   UNL     1     -10.175   2.434 -14.799  1.00  0.00    +0.047 A 
ATOM     17  C   UNL     1      -9.606  -0.202 -14.292  1.00  0.00    +0.115 A 
ATOM     18  C   UNL     1     -10.579   0.400 -13.526  1.00  0.00    +0.068 A 
BRANCH  10  19
ATOM     19  O   UNL     1      -7.988   4.414 -17.773  1.00  0.00    -0.493 OA
ATOM     20  C   UNL     1      -6.573   4.448 -17.639  1.00  0.00    +0.278 C 
ENDBRANCH  10  19
BRANCH  12  21
ATOM     21  O   UNL     1     -10.059   5.746 -16.288  1.00  0.00    -0.493 OA
ATOM     22  C   UNL     1     -11.441   6.012 -16.496  1.00  0.00    +0.278 C 
ENDBRANCH  12  21
ENDBRANCH   8   9
ENDBRANCH   1   8
BRANCH   4  23
ATOM     23  N   UNL     1     -14.056  -0.311  -8.679  1.00  0.00    -0.306 N 
ATOM     24  C   UNL     1     -14.598  -1.585  -8.648  1.00  0.00    +0.324 C 
ATOM     25  O   UNL     1     -14.725  -2.317  -9.622  1.00  0.00    -0.248 OA
ATOM     26  N   UNL     1     -14.984  -1.922  -7.369  1.00  0.00    -0.289 N 
ATOM     27  H   UNL     1     -14.076   0.217  -7.817  1.00  0.00    +0.171 HD
ATOM     28  H   UNL     1     -14.822  -1.298  -6.597  1.00  0.00    +0.173 HD
BRANCH  26  29
ATOM     29  C   UNL     1     -15.570  -3.114  -7.000  1.00  0.00    +0.177 A 
ATOM     30  C   UNL     1     -14.982  -4.376  -6.765  1.00  0.00    +0.095 A 
ATOM     31  N   UNL     1     -16.895  -3.163  -6.818  1.00  0.00    -0.062 NA
ATOM     32  C   UNL     1     -16.034  -5.191  -6.429  1.00  0.00    +0.135 A 
ATOM     33  O   UNL     1     -17.183  -4.467  -6.459  1.00  0.00    -0.360 OA
ATOM     34  C   UNL     1     -16.160  -6.611  -6.061  1.00  0.00    +0.091 C 
ENDBRANCH  26  29
ENDBRANCH   4  23
TORSDOF 6
ENDMDL
MODEL 5
REMARK VINA RESULT:    -7.887      2.943     10.011
REMARK INTER + INTRA:         -11.751
REMARK INTER:                 -10.951
REMARK INTRA:                  -0.800
REMARK UNBOUND:                -1.098
REMARK SMILES COc1cc2nccc(Oc3ccc(NC(=O)Nc4cc(C)on4)c(Cl)c3)c2cc1OC
REMARK SMILES IDX 11 1 12 2 13 3 14 4 25 5 26 6 27 7 10 8 9 9 3 10 4 11 30 12
REMARK SMILES IDX 5 13 29 14 6 15 28 16 7 17 8 18 2 19 1 20 31 21 32 22 15 23
REMARK SMILES IDX 16 24 17 25 18 26 19 29 20 30 24 31 21 32 23 33 22 34
REMARK H PARENT 15 27 18 28
ROOT
ATOM      1  C   UNL     1     -10.406   0.002 -13.505  1.00  0.00    +0.129 A 
ATOM      2  C   UNL     1     -11.140   1.171 -13.311  1.00  0.00    +0.049 A 
ATOM      3  C   UNL     1     -11.805   1.396 -12.101  1.00  0.00    +0.031 A 
ATOM      4  C   UNL     1     -11.757   0.448 -11.076  1.00  0.00    +0.061 A 
ATOM      5  C   UNL     1     -11.032  -0.741 -11.299  1.00  0.00    +0.068 A 
ATOM      6 Cl   UNL     1     -10.944  -1.969 -10.079  1.00  0.00    -0.082 Cl
ATOM      7  C   UNL     1     -10.365  -0.969 -12.506  1.00  0.00    +0.069 A 
ENDROOT
BRANCH   1   8
ATOM      8  O   UNL     1      -9.805  -0.155 -14.733  1.00  0.00    -0.457 OA
BRANCH   8   9
ATOM      9  C   UNL     1      -8.515   0.322 -14.862  1.00  0.00    +0.138 A 
ATOM     10  C   UNL     1      -7.742   3.988 -16.819  1.00  0.00    +0.162 A 
ATOM     11  C   UNL     1      -6.725   3.214 -16.242  1.00  0.00    +0.079 A 
ATOM     12  C   UNL     1      -9.060   3.512 -16.767  1.00  0.00    +0.161 A 
ATOM     13  C   UNL     1      -6.976   2.008 -15.598  1.00  0.00    +0.078 A 
ATOM     14  C   UNL     1      -9.332   2.313 -16.101  1.00  0.00    +0.064 A 
ATOM     15  N   UNL     1      -5.943   1.329 -15.066  1.00  0.00    -0.256 NA
ATOM     16  C   UNL     1      -8.301   1.548 -15.520  1.00  0.00    +0.047 A 
ATOM     17  C   UNL     1      -6.198   0.169 -14.421  1.00  0.00    +0.115 A 
ATOM     18  C   UNL     1      -7.457  -0.372 -14.286  1.00  0.00    +0.068 A 
BRANCH  10  19
ATOM     19  O   UNL     1      -7.522   5.199 -17.419  1.00  0.00    -0.493 OA
ATOM     20  C   UNL     1      -7.714   5.294 -18.824  1.00  0.00    +0.278 C 
ENDBRANCH  10  19
BRANCH  12  21
ATOM     21  O   UNL     1     -10.182   4.119 -17.267  1.00  0.00    -0.493 OA
ATOM     22  C   UNL     1     -10.745   5.166 -16.485  1.00  0.00    +0.278 C 
ENDBRANCH  12  21
ENDBRANCH   8   9
ENDBRANCH   1   8
BRANCH   4  23
ATOM     23  N   UNL     1     -12.407   0.611  -9.830  1.00  0.00    -0.306 N 
ATOM     24  C   UNL     1     -13.687   0.223  -9.471  1.00  0.00    +0.324 C 
ATOM     25  O   UNL     1     -14.492  -0.317 -10.219  1.00  0.00    -0.248 OA
ATOM     26  N   UNL     1     -13.941   0.532  -8.152  1.00  0.00    -0.289 N 
ATOM     27  H   UNL     1     -11.868   1.113  -9.137  1.00  0.00    +0.171 HD
ATOM     28  H   UNL     1     -13.230   0.941  -7.569  1.00  0.00    +0.173 HD
BRANCH  26  29
ATOM     29  C   UNL     1     -15.124   0.289  -7.488  1.00  0.00    +0.177 A 
ATOM     30  C   UNL     1     -15.449  -0.724  -6.561  1.00  0.00    +0.095 A 
ATOM     31  N   UNL     1     -16.171   1.094  -7.704  1.00  0.00    -0.062 NA
ATOM     32  C   UNL     1     -16.759  -0.482  -6.229  1.00  0.00    +0.135 A 
ATOM     33  O   UNL     1     -17.196   0.608  -6.912  1.00  0.00    -0.360 OA
ATOM     34  C   UNL     1     -17.731  -1.129  -5.331  1.00  0.00    +0.091 C 
ENDBRANCH  26  29
ENDBRANCH   4  23
TORSDOF 6
ENDMDL
MODEL 6
REMARK VINA RESULT:    -7.801      2.687      3.601
REMARK INTER + INTRA:         -11.635
REMARK INTER:                 -10.559
REMARK INTRA:                  -1.076
REMARK UNBOUND:                -1.098
REMARK SMILES COc1cc2nccc(Oc3ccc(NC(=O)Nc4cc(C)on4)c(Cl)c3)c2cc1OC
REMARK SMILES IDX 11 1 12 2 13 3 14 4 25 5 26 6 27 7 10 8 9 9 3 10 4 11 30 12
REMARK SMILES IDX 5 13 29 14 6 15 28 16 7 17 8 18 2 19 1 20 31 21 32 22 15 23
REMARK SMILES IDX 16 24 17 25 18 26 19 29 20 30 24 31 21 32 23 33 22 34
REMARK H PARENT 15 27 18 28
ROOT
ATOM      1  C   UNL     1      -7.988   0.016 -14.811  1.00  0.00    +0.129 A 
ATOM      2  C   UNL     1      -7.913   0.175 -16.193  1.00  0.00    +0.049 A 
ATOM      3  C   UNL     1      -8.488   1.293 -16.809  1.00  0.00    +0.031 A 
ATOM      4  C   UNL     1      -9.156   2.256 -16.050  1.00  0.00    +0.061 A 
ATOM      5  C   UNL     1      -9.245   2.066 -14.656  1.00  0.00    +0.068 A 
ATOM      6 Cl   UNL     1     -10.076   3.212 -13.655  1.00  0.00    -0.082 Cl
ATOM      7  C   UNL     1      -8.672   0.952 -14.037  1.00  0.00    +0.069 A 
ENDROOT
BRANCH   1   8
ATOM      8  O   UNL     1      -7.420  -1.124 -14.288  1.00  0.00    -0.457 OA
BRANCH   8   9
ATOM      9  C   UNL     1      -6.514  -0.955 -13.261  1.00  0.00    +0.138 A 
ATOM     10  C   UNL     1      -7.500  -2.039  -9.296  1.00  0.00    +0.162 A 
ATOM     11  C   UNL     1      -6.242  -1.527  -9.645  1.00  0.00    +0.079 A 
ATOM     12  C   UNL     1      -8.473  -2.170 -10.296  1.00  0.00    +0.161 A 
ATOM     13  C   UNL     1      -5.915  -1.170 -10.948  1.00  0.00    +0.078 A 
ATOM     14  C   UNL     1      -8.151  -1.838 -11.616  1.00  0.00    +0.064 A 
ATOM     15  N   UNL     1      -4.683  -0.690 -11.200  1.00  0.00    -0.256 NA
ATOM     16  C   UNL     1      -6.881  -1.330 -11.955  1.00  0.00    +0.047 A 
ATOM     17  C   UNL     1      -4.364  -0.367 -12.472  1.00  0.00    +0.115 A 
ATOM     18  C   UNL     1      -5.233  -0.485 -13.533  1.00  0.00    +0.068 A 
BRANCH  10  19
ATOM     19  O   UNL     1      -7.827  -2.439  -8.028  1.00  0.00    -0.493 OA
ATOM     20  C   UNL     1      -7.411  -1.622  -6.941  1.00  0.00    +0.278 C 
ENDBRANCH  10  19
BRANCH  12  21
ATOM     21  O   UNL     1      -9.750  -2.648 -10.156  1.00  0.00    -0.493 OA
ATOM     22  C   UNL     1     -10.704  -2.218 -11.119  1.00  0.00    +0.278 C 
ENDBRANCH  12  21
ENDBRANCH   8   9
ENDBRANCH   1   8
BRANCH   4  23
ATOM     23  N   UNL     1      -9.761   3.408 -16.608  1.00  0.00    -0.306 N 
ATOM     24  C   UNL     1      -9.176   4.402 -17.373  1.00  0.00    +0.324 C 
ATOM     25  O   UNL     1      -7.988   4.450 -17.671  1.00  0.00    -0.248 OA
ATOM     26  N   UNL     1     -10.109   5.342 -17.754  1.00  0.00    -0.289 N 
ATOM     27  H   UNL     1     -10.738   3.526 -16.372  1.00  0.00    +0.171 HD
ATOM     28  H   UNL     1     -11.080   5.235 -17.514  1.00  0.00    +0.173 HD
BRANCH  26  29
ATOM     29  C   UNL     1      -9.849   6.464 -18.511  1.00  0.00    +0.177 A 
ATOM     30  C   UNL     1      -9.414   7.745 -18.109  1.00  0.00    +0.095 A 
ATOM     31  N   UNL     1     -10.012   6.410 -19.838  1.00  0.00    -0.062 NA
ATOM     32  C   UNL     1      -9.323   8.462 -19.276  1.00  0.00    +0.135 A 
ATOM     33  O   UNL     1      -9.681   7.665 -20.316  1.00  0.00    -0.360 OA
ATOM     34  C   UNL     1      -8.937   9.844 -19.609  1.00  0.00    +0.091 C 
ENDBRANCH  26  29
ENDBRANCH   4  23
TORSDOF 6
ENDMDL
MODEL 7
REMARK VINA RESULT:    -7.772      3.823     10.967
REMARK INTER + INTRA:         -11.595
REMARK INTER:                 -12.844
REMARK INTRA:                   1.248
REMARK UNBOUND:                -1.098
REMARK SMILES COc1cc2nccc(Oc3ccc(NC(=O)Nc4cc(C)on4)c(Cl)c3)c2cc1OC
REMARK SMILES IDX 11 1 12 2 13 3 14 4 25 5 26 6 27 7 10 8 9 9 3 10 4 11 30 12
REMARK SMILES IDX 5 13 29 14 6 15 28 16 7 17 8 18 2 19 1 20 31 21 32 22 15 23
REMARK SMILES IDX 16 24 17 25 18 26 19 29 20 30 24 31 21 32 23 33 22 34
REMARK H PARENT 15 27 18 28
ROOT
ATOM      1  C   UNL     1     -11.645   1.242 -11.776  1.00  0.00    +0.129 A 
ATOM      2  C   UNL     1     -12.875   1.889 -11.871  1.00  0.00    +0.049 A 
ATOM      3  C   UNL     1     -13.962   1.458 -11.103  1.00  0.00    +0.031 A 
ATOM      4  C   UNL     1     -13.834   0.365 -10.241  1.00  0.00    +0.061 A 
ATOM      5  C   UNL     1     -12.589  -0.294 -10.178  1.00  0.00    +0.068 A 
ATOM      6 Cl   UNL     1     -12.364  -1.667  -9.145  1.00  0.00    -0.082 Cl
ATOM      7  C   UNL     1     -11.501   0.134 -10.943  1.00  0.00    +0.069 A 
ENDROOT
BRANCH   1   8
ATOM      8  O   UNL     1     -10.635   1.711 -12.587  1.00  0.00    -0.457 OA
BRANCH   8   9
ATOM      9  C   UNL     1     -10.957   2.737 -13.453  1.00  0.00    +0.138 A 
ATOM     10  C   UNL     1      -8.367   3.792 -16.624  1.00  0.00    +0.162 A 
ATOM     11  C   UNL     1      -9.599   4.430 -16.414  1.00  0.00    +0.079 A 
ATOM     12  C   UNL     1      -7.971   2.786 -15.732  1.00  0.00    +0.161 A 
ATOM     13  C   UNL     1     -10.452   4.085 -15.372  1.00  0.00    +0.078 A 
ATOM     14  C   UNL     1      -8.830   2.411 -14.693  1.00  0.00    +0.064 A 
ATOM     15  N   UNL     1     -11.618   4.744 -15.243  1.00  0.00    -0.256 NA
ATOM     16  C   UNL     1     -10.067   3.056 -14.497  1.00  0.00    +0.047 A 
ATOM     17  C   UNL     1     -12.453   4.388 -14.243  1.00  0.00    +0.115 A 
ATOM     18  C   UNL     1     -12.176   3.395 -13.331  1.00  0.00    +0.068 A 
BRANCH  10  19
ATOM     19  O   UNL     1      -7.533   4.085 -17.670  1.00  0.00    -0.493 OA
ATOM     20  C   UNL     1      -7.800   5.256 -18.430  1.00  0.00    +0.278 C 
ENDBRANCH  10  19
BRANCH  12  21
ATOM     21  O   UNL     1      -6.816   2.049 -15.769  1.00  0.00    -0.493 OA
ATOM     22  C   UNL     1      -5.681   2.606 -15.117  1.00  0.00    +0.278 C 
ENDBRANCH  12  21
ENDBRANCH   8   9
ENDBRANCH   1   8
BRANCH   4  23
ATOM     23  N   UNL     1     -14.892  -0.124  -9.437  1.00  0.00    -0.306 N 
ATOM     24  C   UNL     1     -15.532   0.504  -8.383  1.00  0.00    +0.324 C 
ATOM     25  O   UNL     1     -15.248   1.615  -7.952  1.00  0.00    -0.248 OA
ATOM     26  N   UNL     1     -16.536  -0.292  -7.875  1.00  0.00    -0.289 N 
ATOM     27  H   UNL     1     -15.175  -1.072  -9.648  1.00  0.00    +0.171 HD
ATOM     28  H   UNL     1     -16.753  -1.181  -8.292  1.00  0.00    +0.173 HD
BRANCH  26  29
ATOM     29  C   UNL     1     -17.354   0.035  -6.815  1.00  0.00    +0.177 A 
ATOM     30  C   UNL     1     -18.679   0.521  -6.812  1.00  0.00    +0.095 A 
ATOM     31  N   UNL     1     -16.894  -0.103  -5.566  1.00  0.00    -0.062 NA
ATOM     32  C   UNL     1     -18.992   0.669  -5.484  1.00  0.00    +0.135 A 
ATOM     33  O   UNL     1     -17.923   0.295  -4.733  1.00  0.00    -0.360 OA
ATOM     34  C   UNL     1     -20.184   1.124  -4.750  1.00  0.00    +0.091 C 
ENDBRANCH  26  29
ENDBRANCH   4  23
TORSDOF 6
ENDMDL
MODEL 8
REMARK VINA RESULT:    -7.763      2.348      3.580
REMARK INTER + INTRA:         -11.584
REMARK INTER:                 -11.265
REMARK INTRA:                  -0.319
REMARK UNBOUND:                -1.098
REMARK SMILES COc1cc2nccc(Oc3ccc(NC(=O)Nc4cc(C)on4)c(Cl)c3)c2cc1OC
REMARK SMILES IDX 11 1 12 2 13 3 14 4 25 5 26 6 27 7 10 8 9 9 3 10 4 11 30 12
REMARK SMILES IDX 5 13 29 14 6 15 28 16 7 17 8 18 2 19 1 20 31 21 32 22 15 23
REMARK SMILES IDX 16 24 17 25 18 26 19 29 20 30 24 31 21 32 23 33 22 34
REMARK H PARENT 15 27 18 28
ROOT
ATOM      1  C   UNL     1     -11.952   1.198 -11.853  1.00  0.00    +0.129 A 
ATOM      2  C   UNL     1     -10.695   1.428 -12.410  1.00  0.00    +0.049 A 
ATOM      3  C   UNL     1     -10.488   2.516 -13.265  1.00  0.00    +0.031 A 
ATOM      4  C   UNL     1     -11.541   3.378 -13.585  1.00  0.00    +0.061 A 
ATOM      5  C   UNL     1     -12.811   3.115 -13.034  1.00  0.00    +0.068 A 
ATOM      6 Cl   UNL     1     -14.166   4.132 -13.403  1.00  0.00    -0.082 Cl
ATOM      7  C   UNL     1     -13.022   2.030 -12.179  1.00  0.00    +0.069 A 
ENDROOT
BRANCH   1   8
ATOM      8  O   UNL     1     -12.077   0.091 -11.044  1.00  0.00    -0.457 OA
BRANCH   8   9
ATOM      9  C   UNL     1     -12.870   0.225  -9.922  1.00  0.00    +0.138 A 
ATOM     10  C   UNL     1     -11.178   0.147  -6.049  1.00  0.00    +0.162 A 
ATOM     11  C   UNL     1     -12.550   0.341  -6.267  1.00  0.00    +0.079 A 
ATOM     12  C   UNL     1     -10.344  -0.056  -7.157  1.00  0.00    +0.161 A 
ATOM     13  C   UNL     1     -13.109   0.367  -7.539  1.00  0.00    +0.078 A 
ATOM     14  C   UNL     1     -10.887  -0.008  -8.445  1.00  0.00    +0.064 A 
ATOM     15  N   UNL     1     -14.435   0.563  -7.662  1.00  0.00    -0.256 NA
ATOM     16  C   UNL     1     -12.267   0.194  -8.651  1.00  0.00    +0.047 A 
ATOM     17  C   UNL     1     -14.967   0.611  -8.903  1.00  0.00    +0.115 A 
ATOM     18  C   UNL     1     -14.235   0.455 -10.058  1.00  0.00    +0.068 A 
BRANCH  10  19
ATOM     19  O   UNL     1     -10.601   0.163  -4.807  1.00  0.00    -0.493 OA
ATOM     20  C   UNL     1     -11.427   0.461  -3.690  1.00  0.00    +0.278 C 
ENDBRANCH  10  19
BRANCH  12  21
ATOM     21  O   UNL     1      -8.988  -0.258  -7.151  1.00  0.00    -0.493 OA
ATOM     22  C   UNL     1      -8.502  -1.357  -7.913  1.00  0.00    +0.278 C 
ENDBRANCH  12  21
ENDBRANCH   8   9
ENDBRANCH   1   8
BRANCH   4  23
ATOM     23  N   UNL     1     -11.402   4.495 -14.444  1.00  0.00    -0.306 N 
ATOM     24  C   UNL     1     -10.777   4.558 -15.678  1.00  0.00    +0.324 C 
ATOM     25  O   UNL     1     -10.201   3.623 -16.221  1.00  0.00    -0.248 OA
ATOM     26  N   UNL     1     -10.883   5.822 -16.217  1.00  0.00    -0.289 N 
ATOM     27  H   UNL     1     -11.777   5.358 -14.074  1.00  0.00    +0.171 HD
ATOM     28  H   UNL     1     -11.401   6.545 -15.745  1.00  0.00    +0.173 HD
BRANCH  26  29
ATOM     29  C   UNL     1     -10.359   6.221 -17.427  1.00  0.00    +0.177 A 
ATOM     30  C   UNL     1     -10.961   6.262 -18.703  1.00  0.00    +0.095 A 
ATOM     31  N   UNL     1      -9.092   6.647 -17.483  1.00  0.00    -0.062 NA
ATOM     32  C   UNL     1      -9.978   6.739 -19.535  1.00  0.00    +0.135 A 
ATOM     33  O   UNL     1      -8.855   6.972 -18.806  1.00  0.00    -0.360 OA
ATOM     34  C   UNL     1      -9.901   7.035 -20.975  1.00  0.00    +0.091 C 
ENDBRANCH  26  29
ENDBRANCH   4  23
TORSDOF 6
ENDMDL
MODEL 9
REMARK VINA RESULT:    -7.683      2.169      3.032
REMARK INTER + INTRA:         -11.475
REMARK INTER:                 -12.355
REMARK INTRA:                   0.880
REMARK UNBOUND:                -1.098
REMARK SMILES COc1cc2nccc(Oc3ccc(NC(=O)Nc4cc(C)on4)c(Cl)c3)c2cc1OC
REMARK SMILES IDX 11 1 12 2 13 3 14 4 25 5 26 6 27 7 10 8 9 9 3 10 4 11 30 12
REMARK SMILES IDX 5 13 29 14 6 15 28 16 7 17 8 18 2 19 1 20 31 21 32 22 15 23
REMARK SMILES IDX 16 24 17 25 18 26 19 29 20 30 24 31 21 32 23 33 22 34
REMARK H PARENT 15 27 18 28
ROOT
ATOM      1  C   UNL     1     -12.803   2.287 -12.410  1.00  0.00    +0.129 A 
ATOM      2  C   UNL     1     -13.386   3.092 -13.387  1.00  0.00    +0.049 A 
ATOM      3  C   UNL     1     -12.597   3.681 -14.381  1.00  0.00    +0.031 A 
ATOM      4  C   UNL     1     -11.214   3.481 -14.401  1.00  0.00    +0.061 A 
ATOM      5  C   UNL     1     -10.638   2.685 -13.390  1.00  0.00    +0.068 A 
ATOM      6 Cl   UNL     1      -8.928   2.411 -13.343  1.00  0.00    -0.082 Cl
ATOM      7  C   UNL     1     -11.423   2.095 -12.396  1.00  0.00    +0.069 A 
ENDROOT
BRANCH   1   8
ATOM      8  O   UNL     1     -13.646   1.769 -11.452  1.00  0.00    -0.457 OA
BRANCH   8   9
ATOM      9  C   UNL     1     -13.119   0.810 -10.610  1.00  0.00    +0.138 A 
ATOM     10  C   UNL     1     -15.086  -0.244  -7.020  1.00  0.00    +0.162 A 
ATOM     11  C   UNL     1     -13.897  -0.861  -7.436  1.00  0.00    +0.079 A 
ATOM     12  C   UNL     1     -15.625   0.779  -7.813  1.00  0.00    +0.161 A 
ATOM     13  C   UNL     1     -13.249  -0.517  -8.616  1.00  0.00    +0.078 A 
ATOM     14  C   UNL     1     -14.997   1.120  -9.015  1.00  0.00    +0.064 A 
ATOM     15  N   UNL     1     -12.114  -1.162  -8.945  1.00  0.00    -0.256 NA
ATOM     16  C   UNL     1     -13.806   0.487  -9.425  1.00  0.00    +0.047 A 
ATOM     17  C   UNL     1     -11.502  -0.838 -10.104  1.00  0.00    +0.115 A 
ATOM     18  C   UNL     1     -11.962   0.128 -10.971  1.00  0.00    +0.068 A 
BRANCH  10  19
ATOM     19  O   UNL     1     -15.765  -0.598  -5.885  1.00  0.00    -0.493 OA
ATOM     20  C   UNL     1     -16.235  -1.936  -5.778  1.00  0.00    +0.278 C 
ENDBRANCH  10  19
BRANCH  12  21
ATOM     21  O   UNL     1     -16.770   1.496  -7.580  1.00  0.00    -0.493 OA
ATOM     22  C   UNL     1     -18.001   0.794  -7.706  1.00  0.00    +0.278 C 
ENDBRANCH  12  21
ENDBRANCH   8   9
ENDBRANCH   1   8
BRANCH   4  23
ATOM     23  N   UNL     1     -10.357   4.047 -15.376  1.00  0.00    -0.306 N 
ATOM     24  C   UNL     1     -10.614   5.097 -16.242  1.00  0.00    +0.324 C 
ATOM     25  O   UNL     1     -11.678   5.700 -16.316  1.00  0.00    -0.248 OA
ATOM     26  N   UNL     1      -9.510   5.373 -17.019  1.00  0.00    -0.289 N 
ATOM     27  H   UNL     1      -9.461   3.587 -15.466  1.00  0.00    +0.171 HD
ATOM     28  H   UNL     1      -8.648   4.871 -16.891  1.00  0.00    +0.173 HD
BRANCH  26  29
ATOM     29  C   UNL     1      -9.440   6.350 -17.988  1.00  0.00    +0.177 A 
ATOM     30  C   UNL     1      -9.370   7.753 -17.853  1.00  0.00    +0.095 A 
ATOM     31  N   UNL     1      -9.434   5.994 -19.278  1.00  0.00    -0.062 NA
ATOM     32  C   UNL     1      -9.320   8.223 -19.142  1.00  0.00    +0.135 A 
ATOM     33  O   UNL     1      -9.359   7.171 -20.000  1.00  0.00    -0.360 OA
ATOM     34  C   UNL     1      -9.238   9.563 -19.748  1.00  0.00    +0.091 C 
ENDBRANCH  26  29
ENDBRANCH   4  23
TORSDOF 6
ENDMDL
MODEL 10
REMARK VINA RESULT:    -7.558      1.753      2.048
REMARK INTER + INTRA:         -11.306
REMARK INTER:                 -10.261
REMARK INTRA:                  -1.045
REMARK UNBOUND:                -1.098
REMARK SMILES COc1cc2nccc(Oc3ccc(NC(=O)Nc4cc(C)on4)c(Cl)c3)c2cc1OC
REMARK SMILES IDX 11 1 12 2 13 3 14 4 25 5 26 6 27 7 10 8 9 9 3 10 4 11 30 12
REMARK SMILES IDX 5 13 29 14 6 15 28 16 7 17 8 18 2 19 1 20 31 21 32 22 15 23
REMARK SMILES IDX 16 24 17 25 18 26 19 29 20 30 24 31 21 32 23 33 22 34
REMARK H PARENT 15 27 18 28
ROOT
ATOM      1  C   UNL     1      -9.858   0.115 -13.832  1.00  0.00    +0.129 A 
ATOM      2  C   UNL     1     -10.122   1.378 -13.306  1.00  0.00    +0.049 A 
ATOM      3  C   UNL     1      -9.720   2.529 -13.993  1.00  0.00    +0.031 A 
ATOM      4  C   UNL     1      -9.036   2.429 -15.207  1.00  0.00    +0.061 A 
ATOM      5  C   UNL     1      -8.754   1.143 -15.712  1.00  0.00    +0.068 A 
ATOM      6 Cl   UNL     1      -7.894   0.944 -17.203  1.00  0.00    -0.082 Cl
ATOM      7  C   UNL     1      -9.155  -0.009 -15.030  1.00  0.00    +0.069 A 
ENDROOT
BRANCH   1   8
ATOM      8  O   UNL     1     -10.263  -0.965 -13.081  1.00  0.00    -0.457 OA
BRANCH   8   9
ATOM      9  C   UNL     1      -9.496  -1.280 -11.977  1.00  0.00    +0.138 A 
ATOM     10  C   UNL     1     -11.302  -2.167  -8.259  1.00  0.00    +0.162 A 
ATOM     11  C   UNL     1      -9.913  -2.207  -8.450  1.00  0.00    +0.079 A 
ATOM     12  C   UNL     1     -12.117  -1.792  -9.337  1.00  0.00    +0.161 A 
ATOM     13  C   UNL     1      -9.317  -1.916  -9.671  1.00  0.00    +0.078 A 
ATOM     14  C   UNL     1     -11.533  -1.520 -10.578  1.00  0.00    +0.064 A 
ATOM     15  N   UNL     1      -7.976  -1.982  -9.770  1.00  0.00    -0.256 NA
ATOM     16  C   UNL     1     -10.137  -1.570 -10.758  1.00  0.00    +0.047 A 
ATOM     17  C   UNL     1      -7.405  -1.720 -10.966  1.00  0.00    +0.115 A 
ATOM     18  C   UNL     1      -8.113  -1.373 -12.095  1.00  0.00    +0.068 A 
BRANCH  10  19
ATOM     19  O   UNL     1     -11.913  -2.493  -7.078  1.00  0.00    -0.493 OA
ATOM     20  C   UNL     1     -12.130  -3.870  -6.796  1.00  0.00    +0.278 C 
ENDBRANCH  10  19
BRANCH  12  21
ATOM     21  O   UNL     1     -13.484  -1.697  -9.350  1.00  0.00    -0.493 OA
ATOM     22  C   UNL     1     -14.202  -2.848  -9.780  1.00  0.00    +0.278 C 
ENDBRANCH  12  21
ENDBRANCH   8   9
ENDBRANCH   1   8
BRANCH   4  23
ATOM     23  N   UNL     1      -8.599   3.550 -15.953  1.00  0.00    -0.306 N 
ATOM     24  C   UNL     1      -9.353   4.411 -16.732  1.00  0.00    +0.324 C 
ATOM     25  O   UNL     1     -10.559   4.310 -16.923  1.00  0.00    -0.248 OA
ATOM     26  N   UNL     1      -8.562   5.402 -17.273  1.00  0.00    -0.289 N 
ATOM     27  H   UNL     1      -7.600   3.703 -15.936  1.00  0.00    +0.171 HD
ATOM     28  H   UNL     1      -7.583   5.462 -17.052  1.00  0.00    +0.173 HD
BRANCH  26  29
ATOM     29  C   UNL     1      -9.002   6.409 -18.104  1.00  0.00    +0.177 A 
ATOM     30  C   UNL     1      -9.221   6.400 -19.499  1.00  0.00    +0.095 A 
ATOM     31  N   UNL     1      -9.284   7.610 -17.585  1.00  0.00    -0.062 NA
ATOM     32  C   UNL     1      -9.654   7.669 -19.790  1.00  0.00    +0.135 A 
ATOM     33  O   UNL     1      -9.693   8.399 -18.645  1.00  0.00    -0.360 OA
ATOM     34  C   UNL     1     -10.062   8.361 -21.025  1.00  0.00    +0.091 C 
ENDBRANCH  26  29
ENDBRANCH   4  23
TORSDOF 6
ENDMDL
