MODEL 1
REMARK VINA RESULT:    -8.757      0.000      0.000
REMARK INTER + INTRA:         -12.172
REMARK INTER:                 -11.316
REMARK INTRA:                  -0.856
REMARK UNBOUND:                -0.856
REMARK SMILES CNC(=O)c1ccccc1Sc1ccc2c(/C=C/c3ccccn3)n[nH]c2c1
REMARK SMILES IDX 11 1 10 2 5 3 6 4 7 5 9 6 8 7 3 8 2 9 4 10 1 11 12 13 13 14
REMARK SMILES IDX 28 15 14 16 27 17 15 18 26 19 16 20 25 21 17 23 18 24 19 25
REMARK SMILES IDX 20 26 24 27 21 28 23 29 22 30
REMARK H PARENT 2 12 26 22
ROOT
ATOM      1  S   UNL     1     -13.188  -0.519  -9.300  1.00  0.00    -0.089 SA
ENDROOT
BRANCH   1   2
ATOM      2  C   UNL     1     -11.538  -1.050  -8.836  1.00  0.00    +0.025 A 
ATOM      3  C   UNL     1     -10.889  -2.185  -9.359  1.00  0.00    +0.053 A 
ATOM      4  C   UNL     1      -9.566  -2.469  -8.975  1.00  0.00    +0.015 A 
ATOM      5  C   UNL     1      -8.901  -1.658  -8.056  1.00  0.00    +0.001 A 
ATOM      6  C   UNL     1     -10.854  -0.248  -7.906  1.00  0.00    +0.016 A 
ATOM      7  C   UNL     1      -9.547  -0.551  -7.517  1.00  0.00    +0.001 A 
BRANCH   3   8
ATOM      8  C   UNL     1     -11.496  -3.131 -10.332  1.00  0.00    +0.252 C 
ATOM      9  N   UNL     1     -12.396  -4.044  -9.830  1.00  0.00    -0.355 N 
ATOM     10  O   UNL     1     -11.159  -3.090 -11.511  1.00  0.00    -0.269 OA
ATOM     11  C   UNL     1     -13.115  -4.941 -10.698  1.00  0.00    +0.143 C 
ATOM     12  H   UNL     1     -12.733  -3.919  -8.882  1.00  0.00    +0.163 HD
ENDBRANCH   3   8
ENDBRANCH   1   2
BRANCH   1  13
ATOM     13  C   UNL     1     -12.792   0.574 -10.660  1.00  0.00    +0.014 A 
ATOM     14  C   UNL     1     -11.545   0.501 -11.285  1.00  0.00    +0.016 A 
ATOM     15  C   UNL     1     -13.761   1.483 -11.106  1.00  0.00    +0.043 A 
ATOM     16  C   UNL     1     -11.222   1.353 -12.351  1.00  0.00    +0.014 A 
ATOM     17  C   UNL     1     -13.414   2.322 -12.173  1.00  0.00    +0.067 A 
ATOM     18  C   UNL     1     -12.171   2.295 -12.797  1.00  0.00    +0.027 A 
ATOM     19  N   UNL     1     -14.125   3.284 -12.833  1.00  0.00    -0.277 N 
ATOM     20  C   UNL     1     -12.244   3.309 -13.805  1.00  0.00    +0.093 A 
ATOM     21  N   UNL     1     -13.456   3.882 -13.828  1.00  0.00    -0.175 NA
ATOM     22  H   UNL     1     -15.079   3.576 -12.658  1.00  0.00    +0.190 HD
BRANCH  20  23
ATOM     23  C   UNL     1     -11.217   3.702 -14.724  1.00  0.00    +0.033 C 
ATOM     24  C   UNL     1     -11.213   4.810 -15.486  1.00  0.00    +0.030 C 
BRANCH  24  25
ATOM     25  C   UNL     1     -10.139   5.157 -16.425  1.00  0.00    +0.063 A 
ATOM     26  C   UNL     1     -10.017   6.463 -16.893  1.00  0.00    +0.028 A 
ATOM     27  N   UNL     1      -9.287   4.173 -16.797  1.00  0.00    -0.257 NA
ATOM     28  C   UNL     1      -8.986   6.769 -17.779  1.00  0.00    +0.004 A 
ATOM     29  C   UNL     1      -8.297   4.497 -17.657  1.00  0.00    +0.111 A 
ATOM     30  C   UNL     1      -8.107   5.768 -18.171  1.00  0.00    +0.020 A 
ENDBRANCH  24  25
ENDBRANCH  20  23
ENDBRANCH   1  13
TORSDOF 5
ENDMDL
MODEL 2
REMARK VINA RESULT:    -8.733      2.245      2.781
REMARK INTER + INTRA:         -12.141
REMARK INTER:                 -11.125
REMARK INTRA:                  -1.015
REMARK UNBOUND:                -0.856
REMARK SMILES CNC(=O)c1ccccc1Sc1ccc2c(/C=C/c3ccccn3)n[nH]c2c1
REMARK SMILES IDX 11 1 10 2 5 3 6 4 7 5 9 6 8 7 3 8 2 9 4 10 1 11 12 13 13 14
REMARK SMILES IDX 28 15 14 16 27 17 15 18 26 19 16 20 25 21 17 23 18 24 19 25
REMARK SMILES IDX 20 26 24 27 21 28 23 29 22 30
REMARK H PARENT 2 12 26 22
ROOT
ATOM      1  S   UNL     1     -12.600  -1.142  -9.617  1.00  0.00    -0.089 SA
ENDROOT
BRANCH   1   2
ATOM      2  C   UNL     1     -12.020  -0.266  -8.162  1.00  0.00    +0.025 A 
ATOM      3  C   UNL     1     -12.860   0.364  -7.224  1.00  0.00    +0.053 A 
ATOM      4  C   UNL     1     -12.300   0.964  -6.081  1.00  0.00    +0.015 A 
ATOM      5  C   UNL     1     -10.920   0.971  -5.884  1.00  0.00    +0.001 A 
ATOM      6  C   UNL     1     -10.631  -0.242  -7.950  1.00  0.00    +0.016 A 
ATOM      7  C   UNL     1     -10.085   0.373  -6.821  1.00  0.00    +0.001 A 
BRANCH   3   8
ATOM      8  C   UNL     1     -14.342   0.435  -7.330  1.00  0.00    +0.252 C 
ATOM      9  N   UNL     1     -15.054  -0.590  -6.750  1.00  0.00    -0.355 N 
ATOM     10  O   UNL     1     -14.864   1.361  -7.943  1.00  0.00    -0.269 OA
ATOM     11  C   UNL     1     -16.493  -0.571  -6.708  1.00  0.00    +0.143 C 
ATOM     12  H   UNL     1     -14.564  -1.233  -6.138  1.00  0.00    +0.163 HD
ENDBRANCH   3   8
ENDBRANCH   1   2
BRANCH   1  13
ATOM     13  C   UNL     1     -12.342   0.117 -10.860  1.00  0.00    +0.014 A 
ATOM     14  C   UNL     1     -11.171   0.131 -11.621  1.00  0.00    +0.016 A 
ATOM     15  C   UNL     1     -13.345   1.072 -11.080  1.00  0.00    +0.043 A 
ATOM     16  C   UNL     1     -10.956   1.114 -12.598  1.00  0.00    +0.014 A 
ATOM     17  C   UNL     1     -13.107   2.041 -12.063  1.00  0.00    +0.067 A 
ATOM     18  C   UNL     1     -11.939   2.101 -12.815  1.00  0.00    +0.027 A 
ATOM     19  N   UNL     1     -13.876   3.077 -12.514  1.00  0.00    -0.277 N 
ATOM     20  C   UNL     1     -12.111   3.235 -13.672  1.00  0.00    +0.093 A 
ATOM     21  N   UNL     1     -13.313   3.800 -13.491  1.00  0.00    -0.175 NA
ATOM     22  H   UNL     1     -14.804   3.339 -12.202  1.00  0.00    +0.190 HD
BRANCH  20  23
ATOM     23  C   UNL     1     -11.185   3.746 -14.639  1.00  0.00    +0.033 C 
ATOM     24  C   UNL     1     -11.342   4.859 -15.378  1.00  0.00    +0.030 C 
BRANCH  24  25
ATOM     25  C   UNL     1     -10.365   5.331 -16.369  1.00  0.00    +0.063 A 
ATOM     26  C   UNL     1     -10.216   6.695 -16.605  1.00  0.00    +0.028 A 
ATOM     27  N   UNL     1      -9.628   4.399 -17.017  1.00  0.00    -0.257 NA
ATOM     28  C   UNL     1      -9.279   7.118 -17.545  1.00  0.00    +0.004 A 
ATOM     29  C   UNL     1      -8.727   4.837 -17.923  1.00  0.00    +0.111 A 
ATOM     30  C   UNL     1      -8.518   6.173 -18.220  1.00  0.00    +0.020 A 
ENDBRANCH  24  25
ENDBRANCH  20  23
ENDBRANCH   1  13
TORSDOF 5
ENDMDL
MODEL 3
REMARK VINA RESULT:    -8.691      1.610      2.667
REMARK INTER + INTRA:         -12.087
REMARK INTER:                 -11.094
REMARK INTRA:                  -0.993
REMARK UNBOUND:                -0.856
REMARK SMILES CNC(=O)c1ccccc1Sc1ccc2c(/C=C/c3ccccn3)n[nH]c2c1
REMARK SMILES IDX 11 1 10 2 5 3 6 4 7 5 9 6 8 7 3 8 2 9 4 10 1 11 12 13 13 14
REMARK SMILES IDX 28 15 14 16 27 17 15 18 26 19 16 20 25 21 17 23 18 24 19 25
REMARK SMILES IDX 20 26 24 27 21 28 23 29 22 30
REMARK H PARENT 2 12 26 22
ROOT
ATOM      1  S   UNL     1     -13.643  -0.309  -8.880  1.00  0.00    -0.089 SA
ENDROOT
BRANCH   1   2
ATOM      2  C   UNL     1     -12.883  -1.898  -9.219  1.00  0.00    +0.025 A 
ATOM      3  C   UNL     1     -11.745  -2.395  -8.556  1.00  0.00    +0.053 A 
ATOM      4  C   UNL     1     -11.274  -3.687  -8.853  1.00  0.00    +0.015 A 
ATOM      5  C   UNL     1     -11.901  -4.468  -9.822  1.00  0.00    +0.001 A 
ATOM      6  C   UNL     1     -13.498  -2.697 -10.198  1.00  0.00    +0.016 A 
ATOM      7  C   UNL     1     -13.010  -3.971 -10.499  1.00  0.00    +0.001 A 
BRANCH   3   8
ATOM      8  C   UNL     1     -10.983  -1.654  -7.515  1.00  0.00    +0.252 C 
ATOM      9  N   UNL     1      -9.954  -0.851  -7.955  1.00  0.00    -0.355 N 
ATOM     10  O   UNL     1     -11.265  -1.805  -6.331  1.00  0.00    -0.269 OA
ATOM     11  C   UNL     1      -9.216  -0.016  -7.044  1.00  0.00    +0.143 C 
ATOM     12  H   UNL     1      -9.879  -0.663  -8.948  1.00  0.00    +0.163 HD
ENDBRANCH   3   8
ENDBRANCH   1   2
BRANCH   1  13
ATOM     13  C   UNL     1     -13.094   0.609 -10.314  1.00  0.00    +0.014 A 
ATOM     14  C   UNL     1     -11.802   0.435 -10.813  1.00  0.00    +0.016 A 
ATOM     15  C   UNL     1     -13.989   1.485 -10.945  1.00  0.00    +0.043 A 
ATOM     16  C   UNL     1     -11.358   1.150 -11.935  1.00  0.00    +0.014 A 
ATOM     17  C   UNL     1     -13.523   2.186 -12.064  1.00  0.00    +0.067 A 
ATOM     18  C   UNL     1     -12.233   2.058 -12.567  1.00  0.00    +0.027 A 
ATOM     19  N   UNL     1     -14.141   3.082 -12.890  1.00  0.00    -0.277 N 
ATOM     20  C   UNL     1     -12.183   2.950 -13.685  1.00  0.00    +0.093 A 
ATOM     21  N   UNL     1     -13.368   3.545 -13.882  1.00  0.00    -0.175 NA
ATOM     22  H   UNL     1     -15.096   3.415 -12.835  1.00  0.00    +0.190 HD
BRANCH  20  23
ATOM     23  C   UNL     1     -11.068   3.209 -14.547  1.00  0.00    +0.033 C 
ATOM     24  C   UNL     1     -10.896   4.295 -15.320  1.00  0.00    +0.030 C 
BRANCH  24  25
ATOM     25  C   UNL     1      -9.737   4.503 -16.199  1.00  0.00    +0.063 A 
ATOM     26  C   UNL     1      -9.627   5.677 -16.940  1.00  0.00    +0.028 A 
ATOM     27  N   UNL     1      -8.800   3.528 -16.244  1.00  0.00    -0.257 NA
ATOM     28  C   UNL     1      -8.516   5.853 -17.762  1.00  0.00    +0.004 A 
ATOM     29  C   UNL     1      -7.734   3.725 -17.049  1.00  0.00    +0.111 A 
ATOM     30  C   UNL     1      -7.548   4.860 -17.820  1.00  0.00    +0.020 A 
ENDBRANCH  24  25
ENDBRANCH  20  23
ENDBRANCH   1  13
TORSDOF 5
ENDMDL
MODEL 4
REMARK VINA RESULT:    -8.596      2.001      2.715
REMARK INTER + INTRA:         -11.965
REMARK INTER:                 -11.623
REMARK INTRA:                  -0.342
REMARK UNBOUND:                -0.856
REMARK SMILES CNC(=O)c1ccccc1Sc1ccc2c(/C=C/c3ccccn3)n[nH]c2c1
REMARK SMILES IDX 11 1 10 2 5 3 6 4 7 5 9 6 8 7 3 8 2 9 4 10 1 11 12 13 13 14
REMARK SMILES IDX 28 15 14 16 27 17 15 18 26 19 16 20 25 21 17 23 18 24 19 25
REMARK SMILES IDX 20 26 24 27 21 28 23 29 22 30
REMARK H PARENT 2 12 26 22
ROOT
ATOM      1  S   UNL     1     -12.925  -0.260  -8.947  1.00  0.00    -0.089 SA
ENDROOT
BRANCH   1   2
ATOM      2  C   UNL     1     -12.932  -1.908  -9.656  1.00  0.00    +0.025 A 
ATOM      3  C   UNL     1     -13.817  -2.935  -9.278  1.00  0.00    +0.053 A 
ATOM      4  C   UNL     1     -13.779  -4.170  -9.950  1.00  0.00    +0.015 A 
ATOM      5  C   UNL     1     -12.851  -4.401 -10.964  1.00  0.00    +0.001 A 
ATOM      6  C   UNL     1     -11.998  -2.162 -10.675  1.00  0.00    +0.016 A 
ATOM      7  C   UNL     1     -11.956  -3.399 -11.323  1.00  0.00    +0.001 A 
BRANCH   3   8
ATOM      8  C   UNL     1     -14.841  -2.815  -8.205  1.00  0.00    +0.252 C 
ATOM      9  N   UNL     1     -16.045  -2.248  -8.557  1.00  0.00    -0.355 N 
ATOM     10  O   UNL     1     -14.573  -3.184  -7.066  1.00  0.00    -0.269 OA
ATOM     11  C   UNL     1     -17.138  -2.173  -7.624  1.00  0.00    +0.143 C 
ATOM     12  H   UNL     1     -16.243  -2.108  -9.542  1.00  0.00    +0.163 HD
ENDBRANCH   3   8
ENDBRANCH   1   2
BRANCH   1  13
ATOM     13  C   UNL     1     -12.621   0.710 -10.419  1.00  0.00    +0.014 A 
ATOM     14  C   UNL     1     -11.371   0.681 -11.039  1.00  0.00    +0.016 A 
ATOM     15  C   UNL     1     -13.665   1.476 -10.956  1.00  0.00    +0.043 A 
ATOM     16  C   UNL     1     -11.119   1.438 -12.193  1.00  0.00    +0.014 A 
ATOM     17  C   UNL     1     -13.389   2.222 -12.109  1.00  0.00    +0.067 A 
ATOM     18  C   UNL     1     -12.146   2.239 -12.733  1.00  0.00    +0.027 A 
ATOM     19  N   UNL     1     -14.180   3.040 -12.865  1.00  0.00    -0.277 N 
ATOM     20  C   UNL     1     -12.304   3.127 -13.844  1.00  0.00    +0.093 A 
ATOM     21  N   UNL     1     -13.562   3.584 -13.923  1.00  0.00    -0.175 NA
ATOM     22  H   UNL     1     -15.157   3.264 -12.718  1.00  0.00    +0.190 HD
BRANCH  20  23
ATOM     23  C   UNL     1     -11.313   3.507 -14.806  1.00  0.00    +0.033 C 
ATOM     24  C   UNL     1     -11.165   4.725 -15.357  1.00  0.00    +0.030 C 
BRANCH  24  25
ATOM     25  C   UNL     1     -10.137   5.057 -16.352  1.00  0.00    +0.063 A 
ATOM     26  C   UNL     1      -9.987   6.371 -16.788  1.00  0.00    +0.028 A 
ATOM     27  N   UNL     1      -9.354   4.051 -16.807  1.00  0.00    -0.257 NA
ATOM     28  C   UNL     1      -9.001   6.662 -17.728  1.00  0.00    +0.004 A 
ATOM     29  C   UNL     1      -8.407   4.361 -17.718  1.00  0.00    +0.111 A 
ATOM     30  C   UNL     1      -8.193   5.639 -18.205  1.00  0.00    +0.020 A 
ENDBRANCH  24  25
ENDBRANCH  20  23
ENDBRANCH   1  13
TORSDOF 5
ENDMDL
MODEL 5
REMARK VINA RESULT:    -8.341      6.515     10.759
REMARK INTER + INTRA:         -11.635
REMARK INTER:                 -11.118
REMARK INTRA:                  -0.516
REMARK UNBOUND:                -0.856
REMARK SMILES CNC(=O)c1ccccc1Sc1ccc2c(/C=C/c3ccccn3)n[nH]c2c1
REMARK SMILES IDX 11 1 10 2 5 3 6 4 7 5 9 6 8 7 3 8 2 9 4 10 1 11 12 13 13 14
REMARK SMILES IDX 28 15 14 16 27 17 15 18 26 19 16 20 25 21 17 23 18 24 19 25
REMARK SMILES IDX 20 26 24 27 21 28 23 29 22 30
REMARK H PARENT 2 12 26 22
ROOT
ATOM      1  S   UNL     1      -7.463   4.725 -17.825  1.00  0.00    -0.089 SA
ENDROOT
BRANCH   1   2
ATOM      2  C   UNL     1      -9.004   4.849 -16.914  1.00  0.00    +0.025 A 
ATOM      3  C   UNL     1      -9.975   5.847 -17.122  1.00  0.00    +0.053 A 
ATOM      4  C   UNL     1     -11.180   5.808 -16.398  1.00  0.00    +0.015 A 
ATOM      5  C   UNL     1     -11.410   4.810 -15.452  1.00  0.00    +0.001 A 
ATOM      6  C   UNL     1      -9.251   3.855 -15.951  1.00  0.00    +0.016 A 
ATOM      7  C   UNL     1     -10.443   3.837 -15.224  1.00  0.00    +0.001 A 
BRANCH   3   8
ATOM      8  C   UNL     1      -9.840   6.968 -18.091  1.00  0.00    +0.252 C 
ATOM      9  N   UNL     1     -10.156   6.694 -19.402  1.00  0.00    -0.355 N 
ATOM     10  O   UNL     1      -9.430   8.058 -17.706  1.00  0.00    -0.269 OA
ATOM     11  C   UNL     1     -10.155   7.729 -20.404  1.00  0.00    +0.143 C 
ATOM     12  H   UNL     1     -10.626   5.821 -19.614  1.00  0.00    +0.163 HD
ENDBRANCH   3   8
ENDBRANCH   1   2
BRANCH   1  13
ATOM     13  C   UNL     1      -6.901   3.121 -17.267  1.00  0.00    +0.014 A 
ATOM     14  C   UNL     1      -7.122   1.984 -18.047  1.00  0.00    +0.016 A 
ATOM     15  C   UNL     1      -6.212   3.026 -16.050  1.00  0.00    +0.043 A 
ATOM     16  C   UNL     1      -6.688   0.720 -17.621  1.00  0.00    +0.014 A 
ATOM     17  C   UNL     1      -5.787   1.754 -15.647  1.00  0.00    +0.067 A 
ATOM     18  C   UNL     1      -6.018   0.598 -16.386  1.00  0.00    +0.027 A 
ATOM     19  N   UNL     1      -5.094   1.340 -14.545  1.00  0.00    -0.277 N 
ATOM     20  C   UNL     1      -5.438  -0.456 -15.611  1.00  0.00    +0.093 A 
ATOM     21  N   UNL     1      -4.854   0.023 -14.503  1.00  0.00    -0.175 NA
ATOM     22  H   UNL     1      -4.746   1.912 -13.784  1.00  0.00    +0.190 HD
BRANCH  20  23
ATOM     23  C   UNL     1      -5.415  -1.855 -15.919  1.00  0.00    +0.033 C 
ATOM     24  C   UNL     1      -5.276  -2.861 -15.037  1.00  0.00    +0.030 C 
BRANCH  24  25
ATOM     25  C   UNL     1      -5.244  -4.282 -15.411  1.00  0.00    +0.063 A 
ATOM     26  C   UNL     1      -4.076  -4.842 -15.920  1.00  0.00    +0.028 A 
ATOM     27  N   UNL     1      -6.374  -5.004 -15.230  1.00  0.00    -0.257 NA
ATOM     28  C   UNL     1      -4.069  -6.193 -16.261  1.00  0.00    +0.004 A 
ATOM     29  C   UNL     1      -6.340  -6.311 -15.569  1.00  0.00    +0.111 A 
ATOM     30  C   UNL     1      -5.222  -6.945 -16.084  1.00  0.00    +0.020 A 
ENDBRANCH  24  25
ENDBRANCH  20  23
ENDBRANCH   1  13
TORSDOF 5
ENDMDL
MODEL 6
REMARK VINA RESULT:    -8.167      1.660      2.129
REMARK INTER + INTRA:         -11.410
REMARK INTER:                 -10.520
REMARK INTRA:                  -0.890
REMARK UNBOUND:                -0.856
REMARK SMILES CNC(=O)c1ccccc1Sc1ccc2c(/C=C/c3ccccn3)n[nH]c2c1
REMARK SMILES IDX 11 1 10 2 5 3 6 4 7 5 9 6 8 7 3 8 2 9 4 10 1 11 12 13 13 14
REMARK SMILES IDX 28 15 14 16 27 17 15 18 26 19 16 20 25 21 17 23 18 24 19 25
REMARK SMILES IDX 20 26 24 27 21 28 23 29 22 30
REMARK H PARENT 2 12 26 22
ROOT
ATOM      1  S   UNL     1     -13.590   0.172 -10.126  1.00  0.00    -0.089 SA
ENDROOT
BRANCH   1   2
ATOM      2  C   UNL     1     -12.211  -0.408  -9.135  1.00  0.00    +0.025 A 
ATOM      3  C   UNL     1     -11.612  -1.675  -9.266  1.00  0.00    +0.053 A 
ATOM      4  C   UNL     1     -10.490  -2.000  -8.483  1.00  0.00    +0.015 A 
ATOM      5  C   UNL     1      -9.985  -1.093  -7.553  1.00  0.00    +0.001 A 
ATOM      6  C   UNL     1     -11.692   0.490  -8.187  1.00  0.00    +0.016 A 
ATOM      7  C   UNL     1     -10.589   0.150  -7.400  1.00  0.00    +0.001 A 
BRANCH   3   8
ATOM      8  C   UNL     1     -12.067  -2.731 -10.211  1.00  0.00    +0.252 C 
ATOM      9  N   UNL     1     -12.906  -3.697  -9.703  1.00  0.00    -0.355 N 
ATOM     10  O   UNL     1     -11.663  -2.725 -11.369  1.00  0.00    -0.269 OA
ATOM     11  C   UNL     1     -13.483  -4.707 -10.551  1.00  0.00    +0.143 C 
ATOM     12  H   UNL     1     -13.311  -3.551  -8.785  1.00  0.00    +0.163 HD
ENDBRANCH   3   8
ENDBRANCH   1   2
BRANCH   1  13
ATOM     13  C   UNL     1     -12.709   1.128 -11.355  1.00  0.00    +0.014 A 
ATOM     14  C   UNL     1     -13.324   2.215 -11.980  1.00  0.00    +0.016 A 
ATOM     15  C   UNL     1     -11.384   0.787 -11.661  1.00  0.00    +0.043 A 
ATOM     16  C   UNL     1     -12.645   2.971 -12.947  1.00  0.00    +0.014 A 
ATOM     17  C   UNL     1     -10.727   1.558 -12.627  1.00  0.00    +0.067 A 
ATOM     18  C   UNL     1     -11.321   2.628 -13.290  1.00  0.00    +0.027 A 
ATOM     19  N   UNL     1      -9.456   1.491 -13.126  1.00  0.00    -0.277 N 
ATOM     20  C   UNL     1     -10.314   3.111 -14.186  1.00  0.00    +0.093 A 
ATOM     21  N   UNL     1      -9.174   2.420 -14.049  1.00  0.00    -0.175 NA
ATOM     22  H   UNL     1      -8.726   0.837 -12.869  1.00  0.00    +0.190 HD
BRANCH  20  23
ATOM     23  C   UNL     1     -10.420   4.198 -15.113  1.00  0.00    +0.033 C 
ATOM     24  C   UNL     1      -9.758   4.316 -16.278  1.00  0.00    +0.030 C 
BRANCH  24  25
ATOM     25  C   UNL     1      -9.894   5.462 -17.187  1.00  0.00    +0.063 A 
ATOM     26  C   UNL     1     -10.681   5.355 -18.331  1.00  0.00    +0.028 A 
ATOM     27  N   UNL     1      -9.242   6.603 -16.861  1.00  0.00    -0.257 NA
ATOM     28  C   UNL     1     -10.798   6.458 -19.174  1.00  0.00    +0.004 A 
ATOM     29  C   UNL     1      -9.373   7.656 -17.696  1.00  0.00    +0.111 A 
ATOM     30  C   UNL     1     -10.132   7.633 -18.853  1.00  0.00    +0.020 A 
ENDBRANCH  24  25
ENDBRANCH  20  23
ENDBRANCH   1  13
TORSDOF 5
ENDMDL
MODEL 7
REMARK VINA RESULT:    -8.083      3.959      9.991
REMARK INTER + INTRA:         -11.301
REMARK INTER:                 -12.086
REMARK INTRA:                   0.785
REMARK UNBOUND:                -0.856
REMARK SMILES CNC(=O)c1ccccc1Sc1ccc2c(/C=C/c3ccccn3)n[nH]c2c1
REMARK SMILES IDX 11 1 10 2 5 3 6 4 7 5 9 6 8 7 3 8 2 9 4 10 1 11 12 13 13 14
REMARK SMILES IDX 28 15 14 16 27 17 15 18 26 19 16 20 25 21 17 23 18 24 19 25
REMARK SMILES IDX 20 26 24 27 21 28 23 29 22 30
REMARK H PARENT 2 12 26 22
ROOT
ATOM      1  S   UNL     1     -11.608   5.610 -16.152  1.00  0.00    -0.089 SA
ENDROOT
BRANCH   1   2
ATOM      2  C   UNL     1     -10.037   4.970 -16.735  1.00  0.00    +0.025 A 
ATOM      3  C   UNL     1      -9.046   5.743 -17.368  1.00  0.00    +0.053 A 
ATOM      4  C   UNL     1      -7.821   5.150 -17.722  1.00  0.00    +0.015 A 
ATOM      5  C   UNL     1      -7.590   3.796 -17.486  1.00  0.00    +0.001 A 
ATOM      6  C   UNL     1      -9.790   3.604 -16.512  1.00  0.00    +0.016 A 
ATOM      7  C   UNL     1      -8.577   3.021 -16.886  1.00  0.00    +0.001 A 
BRANCH   3   8
ATOM      8  C   UNL     1      -9.178   7.191 -17.685  1.00  0.00    +0.252 C 
ATOM      9  N   UNL     1      -9.079   7.546 -19.011  1.00  0.00    -0.355 N 
ATOM     10  O   UNL     1      -9.333   8.001 -16.777  1.00  0.00    -0.269 OA
ATOM     11  C   UNL     1      -9.289   8.904 -19.440  1.00  0.00    +0.143 C 
ATOM     12  H   UNL     1      -9.101   6.812 -19.711  1.00  0.00    +0.163 HD
ENDBRANCH   3   8
ENDBRANCH   1   2
BRANCH   1  13
ATOM     13  C   UNL     1     -11.958   4.436 -14.849  1.00  0.00    +0.014 A 
ATOM     14  C   UNL     1     -13.255   4.300 -14.349  1.00  0.00    +0.016 A 
ATOM     15  C   UNL     1     -10.918   3.636 -14.356  1.00  0.00    +0.043 A 
ATOM     16  C   UNL     1     -13.543   3.384 -13.326  1.00  0.00    +0.014 A 
ATOM     17  C   UNL     1     -11.230   2.728 -13.337  1.00  0.00    +0.067 A 
ATOM     18  C   UNL     1     -12.505   2.590 -12.797  1.00  0.00    +0.027 A 
ATOM     19  N   UNL     1     -10.460   1.818 -12.670  1.00  0.00    -0.277 N 
ATOM     20  C   UNL     1     -12.371   1.581 -11.791  1.00  0.00    +0.093 A 
ATOM     21  N   UNL     1     -11.119   1.102 -11.749  1.00  0.00    -0.175 NA
ATOM     22  H   UNL     1      -9.473   1.628 -12.804  1.00  0.00    +0.190 HD
BRANCH  20  23
ATOM     23  C   UNL     1     -13.391   1.072 -10.923  1.00  0.00    +0.033 C 
ATOM     24  C   UNL     1     -13.207   0.244  -9.879  1.00  0.00    +0.030 C 
BRANCH  24  25
ATOM     25  C   UNL     1     -14.294  -0.260  -9.029  1.00  0.00    +0.063 A 
ATOM     26  C   UNL     1     -14.990   0.613  -8.197  1.00  0.00    +0.028 A 
ATOM     27  N   UNL     1     -14.587  -1.580  -9.099  1.00  0.00    -0.257 NA
ATOM     28  C   UNL     1     -16.021   0.112  -7.405  1.00  0.00    +0.004 A 
ATOM     29  C   UNL     1     -15.590  -2.038  -8.321  1.00  0.00    +0.111 A 
ATOM     30  C   UNL     1     -16.329  -1.240  -7.465  1.00  0.00    +0.020 A 
ENDBRANCH  24  25
ENDBRANCH  20  23
ENDBRANCH   1  13
TORSDOF 5
ENDMDL
MODEL 8
REMARK VINA RESULT:    -8.057      2.452      3.489
REMARK INTER + INTRA:         -11.268
REMARK INTER:                 -10.329
REMARK INTRA:                  -0.938
REMARK UNBOUND:                -0.856
REMARK SMILES CNC(=O)c1ccccc1Sc1ccc2c(/C=C/c3ccccn3)n[nH]c2c1
REMARK SMILES IDX 11 1 10 2 5 3 6 4 7 5 9 6 8 7 3 8 2 9 4 10 1 11 12 13 13 14
REMARK SMILES IDX 28 15 14 16 27 17 15 18 26 19 16 20 25 21 17 23 18 24 19 25
REMARK SMILES IDX 20 26 24 27 21 28 23 29 22 30
REMARK H PARENT 2 12 26 22
ROOT
ATOM      1  S   UNL     1     -11.482  -1.278  -9.243  1.00  0.00    -0.089 SA
ENDROOT
BRANCH   1   2
ATOM      2  C   UNL     1     -13.193  -1.605  -8.818  1.00  0.00    +0.025 A 
ATOM      3  C   UNL     1     -13.870  -1.022  -7.730  1.00  0.00    +0.053 A 
ATOM      4  C   UNL     1     -15.235  -1.297  -7.530  1.00  0.00    +0.015 A 
ATOM      5  C   UNL     1     -15.917  -2.169  -8.377  1.00  0.00    +0.001 A 
ATOM      6  C   UNL     1     -13.896  -2.487  -9.657  1.00  0.00    +0.016 A 
ATOM      7  C   UNL     1     -15.246  -2.769  -9.437  1.00  0.00    +0.001 A 
BRANCH   3   8
ATOM      8  C   UNL     1     -13.250  -0.089  -6.751  1.00  0.00    +0.252 C 
ATOM      9  N   UNL     1     -12.484  -0.654  -5.756  1.00  0.00    -0.355 N 
ATOM     10  O   UNL     1     -13.463   1.116  -6.840  1.00  0.00    -0.269 OA
ATOM     11  C   UNL     1     -11.759   0.160  -4.816  1.00  0.00    +0.143 C 
ATOM     12  H   UNL     1     -12.234  -1.634  -5.836  1.00  0.00    +0.163 HD
ENDBRANCH   3   8
ENDBRANCH   1   2
BRANCH   1  13
ATOM     13  C   UNL     1     -11.710  -0.090 -10.560  1.00  0.00    +0.014 A 
ATOM     14  C   UNL     1     -10.784  -0.002 -11.601  1.00  0.00    +0.016 A 
ATOM     15  C   UNL     1     -12.846   0.732 -10.546  1.00  0.00    +0.043 A 
ATOM     16  C   UNL     1     -10.950   0.927 -12.639  1.00  0.00    +0.014 A 
ATOM     17  C   UNL     1     -12.990   1.649 -11.594  1.00  0.00    +0.067 A 
ATOM     18  C   UNL     1     -12.071   1.783 -12.629  1.00  0.00    +0.027 A 
ATOM     19  N   UNL     1     -13.971   2.560 -11.868  1.00  0.00    -0.277 N 
ATOM     20  C   UNL     1     -12.596   2.828 -13.454  1.00  0.00    +0.093 A 
ATOM     21  N   UNL     1     -13.772   3.270 -12.986  1.00  0.00    -0.175 NA
ATOM     22  H   UNL     1     -14.813   2.741 -11.333  1.00  0.00    +0.190 HD
BRANCH  20  23
ATOM     23  C   UNL     1     -12.020   3.368 -14.650  1.00  0.00    +0.033 C 
ATOM     24  C   UNL     1     -10.924   4.144 -14.725  1.00  0.00    +0.030 C 
BRANCH  24  25
ATOM     25  C   UNL     1     -10.385   4.684 -15.980  1.00  0.00    +0.063 A 
ATOM     26  C   UNL     1     -11.010   5.763 -16.600  1.00  0.00    +0.028 A 
ATOM     27  N   UNL     1      -9.272   4.104 -16.488  1.00  0.00    -0.257 NA
ATOM     28  C   UNL     1     -10.475   6.261 -17.787  1.00  0.00    +0.004 A 
ATOM     29  C   UNL     1      -8.776   4.606 -17.638  1.00  0.00    +0.111 A 
ATOM     30  C   UNL     1      -9.336   5.673 -18.319  1.00  0.00    +0.020 A 
ENDBRANCH  24  25
ENDBRANCH  20  23
ENDBRANCH   1  13
TORSDOF 5
ENDMDL
MODEL 9
REMARK VINA RESULT:    -7.948      2.782      3.530
REMARK INTER + INTRA:         -11.126
REMARK INTER:                 -10.201
REMARK INTRA:                  -0.925
REMARK UNBOUND:                -0.856
REMARK SMILES CNC(=O)c1ccccc1Sc1ccc2c(/C=C/c3ccccn3)n[nH]c2c1
REMARK SMILES IDX 11 1 10 2 5 3 6 4 7 5 9 6 8 7 3 8 2 9 4 10 1 11 12 13 13 14
REMARK SMILES IDX 28 15 14 16 27 17 15 18 26 19 16 20 25 21 17 23 18 24 19 25
REMARK SMILES IDX 20 26 24 27 21 28 23 29 22 30
REMARK H PARENT 2 12 26 22
ROOT
ATOM      1  S   UNL     1     -12.791  -1.152  -9.634  1.00  0.00    -0.089 SA
ENDROOT
BRANCH   1   2
ATOM      2  C   UNL     1     -12.151  -0.337  -8.170  1.00  0.00    +0.025 A 
ATOM      3  C   UNL     1     -12.948   0.281  -7.188  1.00  0.00    +0.053 A 
ATOM      4  C   UNL     1     -12.342   0.830  -6.043  1.00  0.00    +0.015 A 
ATOM      5  C   UNL     1     -10.957   0.800  -5.886  1.00  0.00    +0.001 A 
ATOM      6  C   UNL     1     -10.756  -0.351  -7.998  1.00  0.00    +0.016 A 
ATOM      7  C   UNL     1     -10.163   0.214  -6.866  1.00  0.00    +0.001 A 
BRANCH   3   8
ATOM      8  C   UNL     1     -14.430   0.389  -7.248  1.00  0.00    +0.252 C 
ATOM      9  N   UNL     1     -15.150  -0.632  -6.669  1.00  0.00    -0.355 N 
ATOM     10  O   UNL     1     -14.948   1.339  -7.825  1.00  0.00    -0.269 OA
ATOM     11  C   UNL     1     -16.586  -0.581  -6.585  1.00  0.00    +0.143 C 
ATOM     12  H   UNL     1     -14.657  -1.300  -6.086  1.00  0.00    +0.163 HD
ENDBRANCH   3   8
ENDBRANCH   1   2
BRANCH   1  13
ATOM     13  C   UNL     1     -11.959  -0.208 -10.904  1.00  0.00    +0.014 A 
ATOM     14  C   UNL     1     -12.326   1.116 -11.156  1.00  0.00    +0.016 A 
ATOM     15  C   UNL     1     -10.915  -0.806 -11.624  1.00  0.00    +0.043 A 
ATOM     16  C   UNL     1     -11.682   1.868 -12.151  1.00  0.00    +0.014 A 
ATOM     17  C   UNL     1     -10.287  -0.035 -12.610  1.00  0.00    +0.067 A 
ATOM     18  C   UNL     1     -10.649   1.275 -12.906  1.00  0.00    +0.027 A 
ATOM     19  N   UNL     1      -9.252  -0.319 -13.455  1.00  0.00    -0.277 N 
ATOM     20  C   UNL     1      -9.774   1.667 -13.968  1.00  0.00    +0.093 A 
ATOM     21  N   UNL     1      -8.909   0.688 -14.269  1.00  0.00    -0.175 NA
ATOM     22  H   UNL     1      -8.727  -1.183 -13.520  1.00  0.00    +0.190 HD
BRANCH  20  23
ATOM     23  C   UNL     1      -9.741   2.926 -14.652  1.00  0.00    +0.033 C 
ATOM     24  C   UNL     1      -9.508   3.113 -15.963  1.00  0.00    +0.030 C 
BRANCH  24  25
ATOM     25  C   UNL     1      -9.470   4.431 -16.611  1.00  0.00    +0.063 A 
ATOM     26  C   UNL     1     -10.453   5.375 -16.326  1.00  0.00    +0.028 A 
ATOM     27  N   UNL     1      -8.454   4.680 -17.470  1.00  0.00    -0.257 NA
ATOM     28  C   UNL     1     -10.392   6.620 -16.949  1.00  0.00    +0.004 A 
ATOM     29  C   UNL     1      -8.420   5.895 -18.059  1.00  0.00    +0.111 A 
ATOM     30  C   UNL     1      -9.357   6.888 -17.834  1.00  0.00    +0.020 A 
ENDBRANCH  24  25
ENDBRANCH  20  23
ENDBRANCH   1  13
TORSDOF 5
ENDMDL
MODEL 10
REMARK VINA RESULT:    -7.920      2.199      3.333
REMARK INTER + INTRA:         -11.091
REMARK INTER:                 -10.264
REMARK INTRA:                  -0.827
REMARK UNBOUND:                -0.856
REMARK SMILES CNC(=O)c1ccccc1Sc1ccc2c(/C=C/c3ccccn3)n[nH]c2c1
REMARK SMILES IDX 11 1 10 2 5 3 6 4 7 5 9 6 8 7 3 8 2 9 4 10 1 11 12 13 13 14
REMARK SMILES IDX 28 15 14 16 27 17 15 18 26 19 16 20 25 21 17 23 18 24 19 25
REMARK SMILES IDX 20 26 24 27 21 28 23 29 22 30
REMARK H PARENT 2 12 26 22
ROOT
ATOM      1  S   UNL     1     -14.133  -0.428  -9.289  1.00  0.00    -0.089 SA
ENDROOT
BRANCH   1   2
ATOM      2  C   UNL     1     -13.281  -2.006  -9.240  1.00  0.00    +0.025 A 
ATOM      3  C   UNL     1     -12.234  -2.320  -8.352  1.00  0.00    +0.053 A 
ATOM      4  C   UNL     1     -11.683  -3.614  -8.354  1.00  0.00    +0.015 A 
ATOM      5  C   UNL     1     -12.139  -4.581  -9.250  1.00  0.00    +0.001 A 
ATOM      6  C   UNL     1     -13.722  -2.991 -10.140  1.00  0.00    +0.016 A 
ATOM      7  C   UNL     1     -13.154  -4.267 -10.147  1.00  0.00    +0.001 A 
BRANCH   3   8
ATOM      8  C   UNL     1     -11.654  -1.374  -7.362  1.00  0.00    +0.252 C 
ATOM      9  N   UNL     1     -10.425  -0.833  -7.668  1.00  0.00    -0.355 N 
ATOM     10  O   UNL     1     -12.256  -1.140  -6.319  1.00  0.00    -0.269 OA
ATOM     11  C   UNL     1      -9.818   0.167  -6.829  1.00  0.00    +0.143 C 
ATOM     12  H   UNL     1     -10.064  -0.956  -8.607  1.00  0.00    +0.163 HD
ENDBRANCH   3   8
ENDBRANCH   1   2
BRANCH   1  13
ATOM     13  C   UNL     1     -13.158   0.413 -10.530  1.00  0.00    +0.014 A 
ATOM     14  C   UNL     1     -13.650   1.559 -11.158  1.00  0.00    +0.016 A 
ATOM     15  C   UNL     1     -11.883  -0.079 -10.843  1.00  0.00    +0.043 A 
ATOM     16  C   UNL     1     -12.897   2.227 -12.135  1.00  0.00    +0.014 A 
ATOM     17  C   UNL     1     -11.150   0.607 -11.820  1.00  0.00    +0.067 A 
ATOM     18  C   UNL     1     -11.624   1.733 -12.485  1.00  0.00    +0.027 A 
ATOM     19  N   UNL     1      -9.900   0.392 -12.327  1.00  0.00    -0.277 N 
ATOM     20  C   UNL     1     -10.576   2.092 -13.392  1.00  0.00    +0.093 A 
ATOM     21  N   UNL     1      -9.520   1.277 -13.258  1.00  0.00    -0.175 NA
ATOM     22  H   UNL     1      -9.247  -0.339 -12.071  1.00  0.00    +0.190 HD
BRANCH  20  23
ATOM     23  C   UNL     1     -10.565   3.179 -14.326  1.00  0.00    +0.033 C 
ATOM     24  C   UNL     1      -9.667   3.373 -15.308  1.00  0.00    +0.030 C 
BRANCH  24  25
ATOM     25  C   UNL     1      -9.694   4.515 -16.232  1.00  0.00    +0.063 A 
ATOM     26  C   UNL     1      -8.610   4.758 -17.071  1.00  0.00    +0.028 A 
ATOM     27  N   UNL     1     -10.801   5.295 -16.235  1.00  0.00    -0.257 NA
ATOM     28  C   UNL     1      -8.662   5.844 -17.942  1.00  0.00    +0.004 A 
ATOM     29  C   UNL     1     -10.824   6.340 -17.089  1.00  0.00    +0.111 A 
ATOM     30  C   UNL     1      -9.790   6.654 -17.954  1.00  0.00    +0.020 A 
ENDBRANCH  24  25
ENDBRANCH  20  23
ENDBRANCH   1  13
TORSDOF 5
ENDMDL
