REMARK SMILES COc1cc2nccc(Oc3ccc(NC(=O)Nc4cc(C)on4)c(Cl)c3)c2cc1OC
REMARK SMILES IDX 11 1 12 2 13 3 14 4 25 5 26 6 27 7 10 8 9 9 3 10 4 11 30 12
REMARK SMILES IDX 5 13 29 14 6 15 28 16 7 17 8 18 2 19 1 20 31 21 32 22 15 23
REMARK SMILES IDX 16 24 17 25 18 26 19 29 20 30 24 31 21 32 23 33 22 34
REMARK H PARENT 15 27 18 28
ROOT
ATOM      1  C   UNL     1      -0.663   0.457   0.594  1.00  0.00    +0.129 A 
ATOM      2  C   UNL     1       0.025   1.179   1.567  1.00  0.00    +0.049 A 
ATOM      3  C   UNL     1       1.407   1.372   1.460  1.00  0.00    +0.031 A 
ATOM      4  C   UNL     1       2.118   0.832   0.385  1.00  0.00    +0.061 A 
ATOM      5  C   UNL     1       1.410   0.082  -0.576  1.00  0.00    +0.068 A 
ATOM      6 Cl   UNL     1       2.231  -0.632  -1.925  1.00  0.00    -0.082 Cl
ATOM      7  C   UNL     1       0.030  -0.112  -0.473  1.00  0.00    +0.069 A 
ENDROOT
BRANCH   1   8
ATOM      8  O   UNL     1      -2.016   0.290   0.789  1.00  0.00    -0.457 OA
BRANCH   8   9
ATOM      9  C   UNL     1      -2.825   0.402  -0.324  1.00  0.00    +0.138 A 
ATOM     10  C   UNL     1      -5.368  -2.769  -1.486  1.00  0.00    +0.162 A 
ATOM     11  C   UNL     1      -5.322  -1.549  -2.177  1.00  0.00    +0.079 A 
ATOM     12  C   UNL     1      -4.518  -2.950  -0.386  1.00  0.00    +0.161 A 
ATOM     13  C   UNL     1      -4.487  -0.505  -1.797  1.00  0.00    +0.078 A 
ATOM     14  C   UNL     1      -3.690  -1.900   0.023  1.00  0.00    +0.064 A 
ATOM     15  N   UNL     1      -4.507   0.635  -2.512  1.00  0.00    -0.256 NA
ATOM     16  C   UNL     1      -3.658  -0.677  -0.676  1.00  0.00    +0.047 A 
ATOM     17  C   UNL     1      -3.710   1.654  -2.123  1.00  0.00    +0.115 A 
ATOM     18  C   UNL     1      -2.861   1.593  -1.041  1.00  0.00    +0.068 A 
BRANCH  10  19
ATOM     19  O   UNL     1      -6.215  -3.793  -1.816  1.00  0.00    -0.493 OA
ATOM     20  C   UNL     1      -7.173  -3.564  -2.841  1.00  0.00    +0.278 C 
ENDBRANCH  10  19
BRANCH  12  21
ATOM     21  O   UNL     1      -4.418  -4.059   0.413  1.00  0.00    -0.493 OA
ATOM     22  C   UNL     1      -4.636  -5.319  -0.211  1.00  0.00    +0.278 C 
ENDBRANCH  12  21
ENDBRANCH   8   9
ENDBRANCH   1   8
BRANCH   4  23
ATOM     23  N   UNL     1       3.515   0.987   0.216  1.00  0.00    -0.306 N 
ATOM     24  C   UNL     1       4.399   1.718   0.991  1.00  0.00    +0.324 C 
ATOM     25  O   UNL     1       4.086   2.392   1.965  1.00  0.00    -0.248 OA
ATOM     26  N   UNL     1       5.687   1.592   0.517  1.00  0.00    -0.289 N 
ATOM     27  H   UNL     1       3.892   0.532  -0.605  1.00  0.00    +0.171 HD
ATOM     28  H   UNL     1       5.895   0.994  -0.265  1.00  0.00    +0.173 HD
BRANCH  26  29
ATOM     29  C   UNL     1       6.799   2.202   1.055  1.00  0.00    +0.177 A 
ATOM     30  C   UNL     1       6.905   3.083   2.153  1.00  0.00    +0.095 A 
ATOM     31  N   UNL     1       7.999   1.975   0.508  1.00  0.00    -0.062 NA
ATOM     32  C   UNL     1       8.244   3.374   2.236  1.00  0.00    +0.135 A 
ATOM     33  O   UNL     1       8.904   2.711   1.251  1.00  0.00    -0.360 OA
ATOM     34  C   UNL     1       9.063   4.212   3.128  1.00  0.00    +0.091 C 
ENDBRANCH  26  29
ENDBRANCH   4  23
TORSDOF 6
