MODEL 1
REMARK VINA RESULT:   -10.687      0.000      0.000
REMARK INTER + INTRA:         -14.672
REMARK INTER:                 -14.436
REMARK INTRA:                  -0.236
REMARK UNBOUND:                -0.236
REMARK SMILES COc1cc2nccc(Oc3ccc(NC(=O)Nc4cc(C)on4)c(Cl)c3)c2cc1OC
REMARK SMILES IDX 11 1 12 2 13 3 14 4 25 5 26 6 27 7 10 8 9 9 3 10 4 11 30 12
REMARK SMILES IDX 5 13 29 14 6 15 28 16 7 17 8 18 2 19 1 20 31 21 32 22 15 23
REMARK SMILES IDX 16 24 17 25 18 26 19 29 20 30 24 31 21 32 23 33 22 34
REMARK H PARENT 15 27 18 28
ROOT
ATOM      1  C   UNL     1     -39.394 159.882  -1.861  1.00  0.00    +0.129 A 
ATOM      2  C   UNL     1     -38.299 159.045  -1.652  1.00  0.00    +0.049 A 
ATOM      3  C   UNL     1     -38.196 158.295  -0.475  1.00  0.00    +0.031 A 
ATOM      4  C   UNL     1     -39.181 158.385   0.512  1.00  0.00    +0.061 A 
ATOM      5  C   UNL     1     -40.268 159.256   0.296  1.00  0.00    +0.068 A 
ATOM      6 Cl   UNL     1     -41.516 159.430   1.486  1.00  0.00    -0.082 Cl
ATOM      7  C   UNL     1     -40.375 160.006  -0.879  1.00  0.00    +0.069 A 
ENDROOT
BRANCH   1   8
ATOM      8  O   UNL     1     -39.404 160.605  -3.032  1.00  0.00    -0.457 OA
BRANCH   8   9
ATOM      9  C   UNL     1     -39.052 161.937  -2.946  1.00  0.00    +0.138 A 
ATOM     10  C   UNL     1     -37.903 164.106  -6.388  1.00  0.00    +0.162 A 
ATOM     11  C   UNL     1     -37.980 164.696  -5.117  1.00  0.00    +0.079 A 
ATOM     12  C   UNL     1     -38.192 162.740  -6.513  1.00  0.00    +0.161 A 
ATOM     13  C   UNL     1     -38.358 163.985  -3.984  1.00  0.00    +0.078 A 
ATOM     14  C   UNL     1     -38.597 162.017  -5.386  1.00  0.00    +0.064 A 
ATOM     15  N   UNL     1     -38.411 164.628  -2.803  1.00  0.00    -0.256 NA
ATOM     16  C   UNL     1     -38.677 162.623  -4.116  1.00  0.00    +0.047 A 
ATOM     17  C   UNL     1     -38.802 163.937  -1.710  1.00  0.00    +0.115 A 
ATOM     18  C   UNL     1     -39.137 162.602  -1.727  1.00  0.00    +0.068 A 
BRANCH  10  19
ATOM     19  O   UNL     1     -37.577 164.798  -7.524  1.00  0.00    -0.493 OA
ATOM     20  C   UNL     1     -38.620 165.463  -8.224  1.00  0.00    +0.278 C 
ENDBRANCH  10  19
BRANCH  12  21
ATOM     21  O   UNL     1     -38.175 161.988  -7.659  1.00  0.00    -0.493 OA
ATOM     22  C   UNL     1     -36.958 161.318  -7.967  1.00  0.00    +0.278 C 
ENDBRANCH  12  21
ENDBRANCH   8   9
ENDBRANCH   1   8
BRANCH   4  23
ATOM     23  N   UNL     1     -39.139 157.657   1.726  1.00  0.00    -0.306 N 
ATOM     24  C   UNL     1     -38.093 157.545   2.625  1.00  0.00    +0.324 C 
ATOM     25  O   UNL     1     -36.989 158.059   2.486  1.00  0.00    -0.248 OA
ATOM     26  N   UNL     1     -38.455 156.769   3.705  1.00  0.00    -0.289 N 
ATOM     27  H   UNL     1     -39.975 157.122   1.925  1.00  0.00    +0.171 HD
ATOM     28  H   UNL     1     -39.388 156.401   3.789  1.00  0.00    +0.173 HD
BRANCH  26  29
ATOM     29  C   UNL     1     -37.641 156.453   4.771  1.00  0.00    +0.177 A 
ATOM     30  C   UNL     1     -37.235 155.191   5.256  1.00  0.00    +0.095 A 
ATOM     31  N   UNL     1     -37.117 157.438   5.509  1.00  0.00    -0.062 NA
ATOM     32  C   UNL     1     -36.432 155.475   6.332  1.00  0.00    +0.135 A 
ATOM     33  O   UNL     1     -36.358 156.823   6.487  1.00  0.00    -0.360 OA
ATOM     34  C   UNL     1     -35.676 154.659   7.298  1.00  0.00    +0.091 C 
ENDBRANCH  26  29
ENDBRANCH   4  23
TORSDOF 6
ENDMDL
MODEL 2
REMARK VINA RESULT:   -10.321      1.050      1.108
REMARK INTER + INTRA:         -14.177
REMARK INTER:                 -14.147
REMARK INTRA:                  -0.030
REMARK UNBOUND:                -0.236
REMARK SMILES COc1cc2nccc(Oc3ccc(NC(=O)Nc4cc(C)on4)c(Cl)c3)c2cc1OC
REMARK SMILES IDX 11 1 12 2 13 3 14 4 25 5 26 6 27 7 10 8 9 9 3 10 4 11 30 12
REMARK SMILES IDX 5 13 29 14 6 15 28 16 7 17 8 18 2 19 1 20 31 21 32 22 15 23
REMARK SMILES IDX 16 24 17 25 18 26 19 29 20 30 24 31 21 32 23 33 22 34
REMARK H PARENT 15 27 18 28
ROOT
ATOM      1  C   UNL     1     -39.194 160.065  -2.553  1.00  0.00    +0.129 A 
ATOM      2  C   UNL     1     -38.240 159.084  -2.290  1.00  0.00    +0.049 A 
ATOM      3  C   UNL     1     -38.237 158.412  -1.062  1.00  0.00    +0.031 A 
ATOM      4  C   UNL     1     -39.180 158.724  -0.080  1.00  0.00    +0.061 A 
ATOM      5  C   UNL     1     -40.121 159.737  -0.353  1.00  0.00    +0.068 A 
ATOM      6 Cl   UNL     1     -41.308 160.188   0.827  1.00  0.00    -0.082 Cl
ATOM      7  C   UNL     1     -40.128 160.410  -1.578  1.00  0.00    +0.069 A 
ENDROOT
BRANCH   1   8
ATOM      8  O   UNL     1     -39.110 160.698  -3.774  1.00  0.00    -0.457 OA
BRANCH   8   9
ATOM      9  C   UNL     1     -38.855 162.054  -3.757  1.00  0.00    +0.138 A 
ATOM     10  C   UNL     1     -37.786 164.105  -7.295  1.00  0.00    +0.162 A 
ATOM     11  C   UNL     1     -37.933 164.758  -6.062  1.00  0.00    +0.079 A 
ATOM     12  C   UNL     1     -37.974 162.717  -7.347  1.00  0.00    +0.161 A 
ATOM     13  C   UNL     1     -38.285 164.086  -4.898  1.00  0.00    +0.078 A 
ATOM     14  C   UNL     1     -38.352 162.031  -6.189  1.00  0.00    +0.064 A 
ATOM     15  N   UNL     1     -38.410 164.788  -3.756  1.00  0.00    -0.256 NA
ATOM     16  C   UNL     1     -38.503 162.699  -4.957  1.00  0.00    +0.047 A 
ATOM     17  C   UNL     1     -38.774 164.132  -2.633  1.00  0.00    +0.115 A 
ATOM     18  C   UNL     1     -39.014 162.777  -2.580  1.00  0.00    +0.068 A 
BRANCH  10  19
ATOM     19  O   UNL     1     -37.485 164.755  -8.463  1.00  0.00    -0.493 OA
ATOM     20  C   UNL     1     -38.357 165.790  -8.896  1.00  0.00    +0.278 C 
ENDBRANCH  10  19
BRANCH  12  21
ATOM     21  O   UNL     1     -37.879 161.906  -8.448  1.00  0.00    -0.493 OA
ATOM     22  C   UNL     1     -36.773 161.013  -8.491  1.00  0.00    +0.278 C 
ENDBRANCH  12  21
ENDBRANCH   8   9
ENDBRANCH   1   8
BRANCH   4  23
ATOM     23  N   UNL     1     -39.233 158.085   1.183  1.00  0.00    -0.306 N 
ATOM     24  C   UNL     1     -38.219 157.933   2.113  1.00  0.00    +0.324 C 
ATOM     25  O   UNL     1     -37.067 158.322   1.964  1.00  0.00    -0.248 OA
ATOM     26  N   UNL     1     -38.677 157.278   3.236  1.00  0.00    -0.289 N 
ATOM     27  H   UNL     1     -40.122 157.654   1.398  1.00  0.00    +0.171 HD
ATOM     28  H   UNL     1     -39.644 157.014   3.323  1.00  0.00    +0.173 HD
BRANCH  26  29
ATOM     29  C   UNL     1     -37.917 156.960   4.340  1.00  0.00    +0.177 A 
ATOM     30  C   UNL     1     -37.115 157.788   5.155  1.00  0.00    +0.095 A 
ATOM     31  N   UNL     1     -37.883 155.692   4.767  1.00  0.00    -0.062 NA
ATOM     32  C   UNL     1     -36.594 156.941   6.102  1.00  0.00    +0.135 A 
ATOM     33  O   UNL     1     -37.052 155.683   5.873  1.00  0.00    -0.360 OA
ATOM     34  C   UNL     1     -35.689 157.113   7.251  1.00  0.00    +0.091 C 
ENDBRANCH  26  29
ENDBRANCH   4  23
TORSDOF 6
ENDMDL
MODEL 3
REMARK VINA RESULT:    -9.627      3.823      7.039
REMARK INTER + INTRA:         -13.240
REMARK INTER:                 -12.559
REMARK INTRA:                  -0.681
REMARK UNBOUND:                -0.236
REMARK SMILES COc1cc2nccc(Oc3ccc(NC(=O)Nc4cc(C)on4)c(Cl)c3)c2cc1OC
REMARK SMILES IDX 11 1 12 2 13 3 14 4 25 5 26 6 27 7 10 8 9 9 3 10 4 11 30 12
REMARK SMILES IDX 5 13 29 14 6 15 28 16 7 17 8 18 2 19 1 20 31 21 32 22 15 23
REMARK SMILES IDX 16 24 17 25 18 26 19 29 20 30 24 31 21 32 23 33 22 34
REMARK H PARENT 15 27 18 28
ROOT
ATOM      1  C   UNL     1     -37.145 162.531  -6.852  1.00  0.00    +0.129 A 
ATOM      2  C   UNL     1     -37.815 161.333  -6.616  1.00  0.00    +0.049 A 
ATOM      3  C   UNL     1     -38.585 161.169  -5.459  1.00  0.00    +0.031 A 
ATOM      4  C   UNL     1     -38.682 162.198  -4.518  1.00  0.00    +0.061 A 
ATOM      5  C   UNL     1     -37.976 163.394  -4.761  1.00  0.00    +0.068 A 
ATOM      6 Cl   UNL     1     -38.036 164.705  -3.629  1.00  0.00    -0.082 Cl
ATOM      7  C   UNL     1     -37.207 163.562  -5.916  1.00  0.00    +0.069 A 
ENDROOT
BRANCH   1   8
ATOM      8  O   UNL     1     -36.387 162.600  -8.000  1.00  0.00    -0.457 OA
BRANCH   8   9
ATOM      9  C   UNL     1     -37.068 162.553  -9.200  1.00  0.00    +0.138 A 
ATOM     10  C   UNL     1     -37.255 158.978 -11.449  1.00  0.00    +0.162 A 
ATOM     11  C   UNL     1     -37.898 160.157 -11.855  1.00  0.00    +0.079 A 
ATOM     12  C   UNL     1     -36.501 158.997 -10.268  1.00  0.00    +0.161 A 
ATOM     13  C   UNL     1     -37.838 161.334 -11.117  1.00  0.00    +0.078 A 
ATOM     14  C   UNL     1     -36.451 160.166  -9.502  1.00  0.00    +0.064 A 
ATOM     15  N   UNL     1     -38.488 162.420 -11.575  1.00  0.00    -0.256 NA
ATOM     16  C   UNL     1     -37.107 161.342  -9.918  1.00  0.00    +0.047 A 
ATOM     17  C   UNL     1     -38.444 163.554 -10.841  1.00  0.00    +0.115 A 
ATOM     18  C   UNL     1     -37.760 163.672  -9.652  1.00  0.00    +0.068 A 
BRANCH  10  19
ATOM     19  O   UNL     1     -37.339 157.797 -12.137  1.00  0.00    -0.493 OA
ATOM     20  C   UNL     1     -38.433 156.934 -11.853  1.00  0.00    +0.278 C 
ENDBRANCH  10  19
BRANCH  12  21
ATOM     21  O   UNL     1     -35.808 157.956  -9.708  1.00  0.00    -0.493 OA
ATOM     22  C   UNL     1     -34.625 157.540 -10.380  1.00  0.00    +0.278 C 
ENDBRANCH  12  21
ENDBRANCH   8   9
ENDBRANCH   1   8
BRANCH   4  23
ATOM     23  N   UNL     1     -39.441 162.100  -3.328  1.00  0.00    -0.306 N 
ATOM     24  C   UNL     1     -39.313 161.180  -2.300  1.00  0.00    +0.324 C 
ATOM     25  O   UNL     1     -38.507 160.258  -2.281  1.00  0.00    -0.248 OA
ATOM     26  N   UNL     1     -40.222 161.437  -1.296  1.00  0.00    -0.289 N 
ATOM     27  H   UNL     1     -40.195 162.769  -3.253  1.00  0.00    +0.171 HD
ATOM     28  H   UNL     1     -40.836 162.233  -1.345  1.00  0.00    +0.173 HD
BRANCH  26  29
ATOM     29  C   UNL     1     -40.363 160.701  -0.140  1.00  0.00    +0.177 A 
ATOM     30  C   UNL     1     -41.412 159.849   0.266  1.00  0.00    +0.095 A 
ATOM     31  N   UNL     1     -39.401 160.751   0.789  1.00  0.00    -0.062 NA
ATOM     32  C   UNL     1     -41.024 159.385   1.499  1.00  0.00    +0.135 A 
ATOM     33  O   UNL     1     -39.818 159.924   1.816  1.00  0.00    -0.360 OA
ATOM     34  C   UNL     1     -41.618 158.472   2.490  1.00  0.00    +0.091 C 
ENDBRANCH  26  29
ENDBRANCH   4  23
TORSDOF 6
ENDMDL
MODEL 4
REMARK VINA RESULT:    -9.512      2.320     11.278
REMARK INTER + INTRA:         -13.084
REMARK INTER:                 -12.981
REMARK INTRA:                  -0.102
REMARK UNBOUND:                -0.236
REMARK SMILES COc1cc2nccc(Oc3ccc(NC(=O)Nc4cc(C)on4)c(Cl)c3)c2cc1OC
REMARK SMILES IDX 11 1 12 2 13 3 14 4 25 5 26 6 27 7 10 8 9 9 3 10 4 11 30 12
REMARK SMILES IDX 5 13 29 14 6 15 28 16 7 17 8 18 2 19 1 20 31 21 32 22 15 23
REMARK SMILES IDX 16 24 17 25 18 26 19 29 20 30 24 31 21 32 23 33 22 34
REMARK H PARENT 15 27 18 28
ROOT
ATOM      1  C   UNL     1     -38.978 157.957   2.785  1.00  0.00    +0.129 A 
ATOM      2  C   UNL     1     -37.939 157.948   1.856  1.00  0.00    +0.049 A 
ATOM      3  C   UNL     1     -38.079 158.611   0.632  1.00  0.00    +0.031 A 
ATOM      4  C   UNL     1     -39.266 159.278   0.317  1.00  0.00    +0.061 A 
ATOM      5  C   UNL     1     -40.316 159.254   1.258  1.00  0.00    +0.068 A 
ATOM      6 Cl   UNL     1     -41.822 160.045   0.926  1.00  0.00    -0.082 Cl
ATOM      7  C   UNL     1     -40.180 158.594   2.482  1.00  0.00    +0.069 A 
ENDROOT
BRANCH   1   8
ATOM      8  O   UNL     1     -38.770 157.257   3.953  1.00  0.00    -0.457 OA
BRANCH   8   9
ATOM      9  C   UNL     1     -37.477 157.223   4.437  1.00  0.00    +0.138 A 
ATOM     10  C   UNL     1     -35.666 153.564   5.534  1.00  0.00    +0.162 A 
ATOM     11  C   UNL     1     -34.990 154.791   5.608  1.00  0.00    +0.079 A 
ATOM     12  C   UNL     1     -37.001 153.558   5.106  1.00  0.00    +0.161 A 
ATOM     13  C   UNL     1     -35.583 155.995   5.248  1.00  0.00    +0.078 A 
ATOM     14  C   UNL     1     -37.604 154.759   4.718  1.00  0.00    +0.064 A 
ATOM     15  N   UNL     1     -34.862 157.128   5.344  1.00  0.00    -0.256 NA
ATOM     16  C   UNL     1     -36.911 155.984   4.790  1.00  0.00    +0.047 A 
ATOM     17  C   UNL     1     -35.437 158.291   4.970  1.00  0.00    +0.115 A 
ATOM     18  C   UNL     1     -36.730 158.394   4.507  1.00  0.00    +0.068 A 
BRANCH  10  19
ATOM     19  O   UNL     1     -35.087 152.362   5.841  1.00  0.00    -0.493 OA
ATOM     20  C   UNL     1     -33.724 152.361   6.245  1.00  0.00    +0.278 C 
ENDBRANCH  10  19
BRANCH  12  21
ATOM     21  O   UNL     1     -37.824 152.471   4.966  1.00  0.00    -0.493 OA
ATOM     22  C   UNL     1     -38.368 151.922   6.161  1.00  0.00    +0.278 C 
ENDBRANCH  12  21
ENDBRANCH   8   9
ENDBRANCH   1   8
BRANCH   4  23
ATOM     23  N   UNL     1     -39.475 159.967  -0.902  1.00  0.00    -0.306 N 
ATOM     24  C   UNL     1     -38.976 161.198  -1.291  1.00  0.00    +0.324 C 
ATOM     25  O   UNL     1     -38.269 161.919  -0.597  1.00  0.00    -0.248 OA
ATOM     26  N   UNL     1     -39.384 161.511  -2.570  1.00  0.00    -0.289 N 
ATOM     27  H   UNL     1     -40.107 159.504  -1.543  1.00  0.00    +0.171 HD
ATOM     28  H   UNL     1     -39.932 160.864  -3.111  1.00  0.00    +0.173 HD
BRANCH  26  29
ATOM     29  C   UNL     1     -39.069 162.669  -3.247  1.00  0.00    +0.177 A 
ATOM     30  C   UNL     1     -38.811 162.872  -4.620  1.00  0.00    +0.095 A 
ATOM     31  N   UNL     1     -38.975 163.818  -2.569  1.00  0.00    -0.062 NA
ATOM     32  C   UNL     1     -38.556 164.216  -4.729  1.00  0.00    +0.135 A 
ATOM     33  O   UNL     1     -38.653 164.788  -3.501  1.00  0.00    -0.360 OA
ATOM     34  C   UNL     1     -38.217 165.113  -5.847  1.00  0.00    +0.091 C 
ENDBRANCH  26  29
ENDBRANCH   4  23
TORSDOF 6
ENDMDL
MODEL 5
REMARK VINA RESULT:    -8.628      4.166     12.689
REMARK INTER + INTRA:         -11.890
REMARK INTER:                 -11.015
REMARK INTRA:                  -0.876
REMARK UNBOUND:                -0.236
REMARK SMILES COc1cc2nccc(Oc3ccc(NC(=O)Nc4cc(C)on4)c(Cl)c3)c2cc1OC
REMARK SMILES IDX 11 1 12 2 13 3 14 4 25 5 26 6 27 7 10 8 9 9 3 10 4 11 30 12
REMARK SMILES IDX 5 13 29 14 6 15 28 16 7 17 8 18 2 19 1 20 31 21 32 22 15 23
REMARK SMILES IDX 16 24 17 25 18 26 19 29 20 30 24 31 21 32 23 33 22 34
REMARK H PARENT 15 27 18 28
ROOT
ATOM      1  C   UNL     1     -37.331 154.926   5.962  1.00  0.00    +0.129 A 
ATOM      2  C   UNL     1     -37.675 154.645   4.642  1.00  0.00    +0.049 A 
ATOM      3  C   UNL     1     -37.688 155.663   3.682  1.00  0.00    +0.031 A 
ATOM      4  C   UNL     1     -37.372 156.977   4.037  1.00  0.00    +0.061 A 
ATOM      5  C   UNL     1     -37.052 157.248   5.382  1.00  0.00    +0.068 A 
ATOM      6 Cl   UNL     1     -36.667 158.858   5.896  1.00  0.00    -0.082 Cl
ATOM      7  C   UNL     1     -37.036 156.234   6.343  1.00  0.00    +0.069 A 
ENDROOT
BRANCH   1   8
ATOM      8  O   UNL     1     -37.369 153.873   6.849  1.00  0.00    -0.457 OA
BRANCH   8   9
ATOM      9  C   UNL     1     -36.461 152.853   6.645  1.00  0.00    +0.138 A 
ATOM     10  C   UNL     1     -37.731 149.063   5.269  1.00  0.00    +0.162 A 
ATOM     11  C   UNL     1     -36.382 149.363   5.509  1.00  0.00    +0.079 A 
ATOM     12  C   UNL     1     -38.694 150.049   5.522  1.00  0.00    +0.161 A 
ATOM     13  C   UNL     1     -35.962 150.608   5.961  1.00  0.00    +0.078 A 
ATOM     14  C   UNL     1     -38.285 151.315   5.954  1.00  0.00    +0.064 A 
ATOM     15  N   UNL     1     -34.648 150.816   6.162  1.00  0.00    -0.256 NA
ATOM     16  C   UNL     1     -36.925 151.606   6.185  1.00  0.00    +0.047 A 
ATOM     17  C   UNL     1     -34.244 152.036   6.579  1.00  0.00    +0.115 A 
ATOM     18  C   UNL     1     -35.102 153.084   6.828  1.00  0.00    +0.068 A 
BRANCH  10  19
ATOM     19  O   UNL     1     -38.162 147.858   4.781  1.00  0.00    -0.493 OA
ATOM     20  C   UNL     1     -37.967 147.589   3.399  1.00  0.00    +0.278 C 
ENDBRANCH  10  19
BRANCH  12  21
ATOM     21  O   UNL     1     -40.050 149.951   5.349  1.00  0.00    -0.493 OA
ATOM     22  C   UNL     1     -40.564 150.344   4.082  1.00  0.00    +0.278 C 
ENDBRANCH  12  21
ENDBRANCH   8   9
ENDBRANCH   1   8
BRANCH   4  23
ATOM     23  N   UNL     1     -37.368 158.055   3.118  1.00  0.00    -0.306 N 
ATOM     24  C   UNL     1     -38.240 158.294   2.070  1.00  0.00    +0.324 C 
ATOM     25  O   UNL     1     -39.169 157.563   1.750  1.00  0.00    -0.248 OA
ATOM     26  N   UNL     1     -37.920 159.470   1.425  1.00  0.00    -0.289 N 
ATOM     27  H   UNL     1     -36.597 158.700   3.231  1.00  0.00    +0.171 HD
ATOM     28  H   UNL     1     -37.169 160.053   1.754  1.00  0.00    +0.173 HD
BRANCH  26  29
ATOM     29  C   UNL     1     -38.584 159.988   0.335  1.00  0.00    +0.177 A 
ATOM     30  C   UNL     1     -38.211 160.005  -1.027  1.00  0.00    +0.095 A 
ATOM     31  N   UNL     1     -39.770 160.583   0.512  1.00  0.00    -0.062 NA
ATOM     32  C   UNL     1     -39.246 160.647  -1.661  1.00  0.00    +0.135 A 
ATOM     33  O   UNL     1     -40.183 160.995  -0.742  1.00  0.00    -0.360 OA
ATOM     34  C   UNL     1     -39.528 161.013  -3.060  1.00  0.00    +0.091 C 
ENDBRANCH  26  29
ENDBRANCH   4  23
TORSDOF 6
ENDMDL
MODEL 6
REMARK VINA RESULT:    -8.262      5.399     14.786
REMARK INTER + INTRA:         -11.395
REMARK INTER:                 -10.399
REMARK INTRA:                  -0.996
REMARK UNBOUND:                -0.236
REMARK SMILES COc1cc2nccc(Oc3ccc(NC(=O)Nc4cc(C)on4)c(Cl)c3)c2cc1OC
REMARK SMILES IDX 11 1 12 2 13 3 14 4 25 5 26 6 27 7 10 8 9 9 3 10 4 11 30 12
REMARK SMILES IDX 5 13 29 14 6 15 28 16 7 17 8 18 2 19 1 20 31 21 32 22 15 23
REMARK SMILES IDX 16 24 17 25 18 26 19 29 20 30 24 31 21 32 23 33 22 34
REMARK H PARENT 15 27 18 28
ROOT
ATOM      1  C   UNL     1     -35.119 153.629   6.642  1.00  0.00    +0.129 A 
ATOM      2  C   UNL     1     -36.488 153.785   6.852  1.00  0.00    +0.049 A 
ATOM      3  C   UNL     1     -37.171 154.870   6.291  1.00  0.00    +0.031 A 
ATOM      4  C   UNL     1     -36.489 155.820   5.526  1.00  0.00    +0.061 A 
ATOM      5  C   UNL     1     -35.100 155.661   5.346  1.00  0.00    +0.068 A 
ATOM      6 Cl   UNL     1     -34.187 156.810   4.424  1.00  0.00    -0.082 Cl
ATOM      7  C   UNL     1     -34.414 154.578   5.903  1.00  0.00    +0.069 A 
ENDROOT
BRANCH   1   8
ATOM      8  O   UNL     1     -34.519 152.550   7.251  1.00  0.00    -0.457 OA
BRANCH   8   9
ATOM      9  C   UNL     1     -34.927 151.296   6.842  1.00  0.00    +0.138 A 
ATOM     10  C   UNL     1     -35.876 148.296   9.665  1.00  0.00    +0.162 A 
ATOM     11  C   UNL     1     -35.988 148.091   8.282  1.00  0.00    +0.079 A 
ATOM     12  C   UNL     1     -35.406 149.534  10.124  1.00  0.00    +0.161 A 
ATOM     13  C   UNL     1     -35.677 149.075   7.352  1.00  0.00    +0.078 A 
ATOM     14  C   UNL     1     -35.112 150.543   9.202  1.00  0.00    +0.064 A 
ATOM     15  N   UNL     1     -35.815 148.798   6.042  1.00  0.00    -0.256 NA
ATOM     16  C   UNL     1     -35.235 150.326   7.815  1.00  0.00    +0.047 A 
ATOM     17  C   UNL     1     -35.533 149.767   5.145  1.00  0.00    +0.115 A 
ATOM     18  C   UNL     1     -35.095 151.026   5.489  1.00  0.00    +0.068 A 
BRANCH  10  19
ATOM     19  O   UNL     1     -36.221 147.356  10.599  1.00  0.00    -0.493 OA
ATOM     20  C   UNL     1     -35.297 146.308  10.865  1.00  0.00    +0.278 C 
ENDBRANCH  10  19
BRANCH  12  21
ATOM     21  O   UNL     1     -35.232 149.926  11.426  1.00  0.00    -0.493 OA
ATOM     22  C   UNL     1     -33.927 149.768  11.972  1.00  0.00    +0.278 C 
ENDBRANCH  12  21
ENDBRANCH   8   9
ENDBRANCH   1   8
BRANCH   4  23
ATOM     23  N   UNL     1     -37.116 156.941   4.931  1.00  0.00    -0.306 N 
ATOM     24  C   UNL     1     -37.741 157.024   3.699  1.00  0.00    +0.324 C 
ATOM     25  O   UNL     1     -37.823 156.106   2.891  1.00  0.00    -0.248 OA
ATOM     26  N   UNL     1     -38.258 158.285   3.495  1.00  0.00    -0.289 N 
ATOM     27  H   UNL     1     -37.055 157.793   5.473  1.00  0.00    +0.171 HD
ATOM     28  H   UNL     1     -38.197 158.992   4.208  1.00  0.00    +0.173 HD
BRANCH  26  29
ATOM     29  C   UNL     1     -38.929 158.699   2.365  1.00  0.00    +0.177 A 
ATOM     30  C   UNL     1     -40.286 159.051   2.197  1.00  0.00    +0.095 A 
ATOM     31  N   UNL     1     -38.262 158.810   1.211  1.00  0.00    -0.062 NA
ATOM     32  C   UNL     1     -40.397 159.382   0.870  1.00  0.00    +0.135 A 
ATOM     33  O   UNL     1     -39.185 159.238   0.274  1.00  0.00    -0.360 OA
ATOM     34  C   UNL     1     -41.503 159.836   0.010  1.00  0.00    +0.091 C 
ENDBRANCH  26  29
ENDBRANCH   4  23
TORSDOF 6
ENDMDL
MODEL 7
REMARK VINA RESULT:    -8.098      8.765     12.892
REMARK INTER + INTRA:         -11.173
REMARK INTER:                 -10.073
REMARK INTRA:                  -1.101
REMARK UNBOUND:                -0.236
REMARK SMILES COc1cc2nccc(Oc3ccc(NC(=O)Nc4cc(C)on4)c(Cl)c3)c2cc1OC
REMARK SMILES IDX 11 1 12 2 13 3 14 4 25 5 26 6 27 7 10 8 9 9 3 10 4 11 30 12
REMARK SMILES IDX 5 13 29 14 6 15 28 16 7 17 8 18 2 19 1 20 31 21 32 22 15 23
REMARK SMILES IDX 16 24 17 25 18 26 19 29 20 30 24 31 21 32 23 33 22 34
REMARK H PARENT 15 27 18 28
ROOT
ATOM      1  C   UNL     1     -38.725 151.450   5.660  1.00  0.00    +0.129 A 
ATOM      2  C   UNL     1     -38.686 151.566   4.272  1.00  0.00    +0.049 A 
ATOM      3  C   UNL     1     -39.359 150.641   3.466  1.00  0.00    +0.031 A 
ATOM      4  C   UNL     1     -40.066 149.581   4.040  1.00  0.00    +0.061 A 
ATOM      5  C   UNL     1     -40.073 149.464   5.444  1.00  0.00    +0.068 A 
ATOM      6 Cl   UNL     1     -40.914 148.164   6.223  1.00  0.00    -0.082 Cl
ATOM      7  C   UNL     1     -39.403 150.386   6.253  1.00  0.00    +0.069 A 
ENDROOT
BRANCH   1   8
ATOM      8  O   UNL     1     -38.013 152.385   6.379  1.00  0.00    -0.457 OA
BRANCH   8   9
ATOM      9  C   UNL     1     -36.660 152.472   6.121  1.00  0.00    +0.138 A 
ATOM     10  C   UNL     1     -34.916 156.119   4.886  1.00  0.00    +0.162 A 
ATOM     11  C   UNL     1     -34.161 154.954   5.087  1.00  0.00    +0.079 A 
ATOM     12  C   UNL     1     -36.304 156.061   5.076  1.00  0.00    +0.161 A 
ATOM     13  C   UNL     1     -34.732 153.754   5.493  1.00  0.00    +0.078 A 
ATOM     14  C   UNL     1     -36.889 154.867   5.508  1.00  0.00    +0.064 A 
ATOM     15  N   UNL     1     -33.936 152.683   5.668  1.00  0.00    -0.256 NA
ATOM     16  C   UNL     1     -36.119 153.706   5.713  1.00  0.00    +0.047 A 
ATOM     17  C   UNL     1     -34.494 151.526   6.085  1.00  0.00    +0.115 A 
ATOM     18  C   UNL     1     -35.839 151.369   6.331  1.00  0.00    +0.068 A 
BRANCH  10  19
ATOM     19  O   UNL     1     -34.368 157.323   4.530  1.00  0.00    -0.493 OA
ATOM     20  C   UNL     1     -33.065 157.631   5.008  1.00  0.00    +0.278 C 
ENDBRANCH  10  19
BRANCH  12  21
ATOM     21  O   UNL     1     -37.205 157.084   4.933  1.00  0.00    -0.493 OA
ATOM     22  C   UNL     1     -37.820 157.221   3.657  1.00  0.00    +0.278 C 
ENDBRANCH  12  21
ENDBRANCH   8   9
ENDBRANCH   1   8
BRANCH   4  23
ATOM     23  N   UNL     1     -40.767 148.610   3.284  1.00  0.00    -0.306 N 
ATOM     24  C   UNL     1     -40.250 147.591   2.502  1.00  0.00    +0.324 C 
ATOM     25  O   UNL     1     -39.056 147.387   2.316  1.00  0.00    -0.248 OA
ATOM     26  N   UNL     1     -41.261 146.834   1.951  1.00  0.00    -0.289 N 
ATOM     27  H   UNL     1     -41.773 148.714   3.296  1.00  0.00    +0.171 HD
ATOM     28  H   UNL     1     -42.225 147.022   2.167  1.00  0.00    +0.173 HD
BRANCH  26  29
ATOM     29  C   UNL     1     -41.084 145.754   1.114  1.00  0.00    +0.177 A 
ATOM     30  C   UNL     1     -40.872 145.716  -0.281  1.00  0.00    +0.095 A 
ATOM     31  N   UNL     1     -41.105 144.518   1.628  1.00  0.00    -0.062 NA
ATOM     32  C   UNL     1     -40.765 144.380  -0.579  1.00  0.00    +0.135 A 
ATOM     33  O   UNL     1     -40.904 143.658   0.564  1.00  0.00    -0.360 OA
ATOM     34  C   UNL     1     -40.542 143.615  -1.817  1.00  0.00    +0.091 C 
ENDBRANCH  26  29
ENDBRANCH   4  23
TORSDOF 6
ENDMDL
MODEL 8
REMARK VINA RESULT:    -8.091      2.810      5.107
REMARK INTER + INTRA:         -11.165
REMARK INTER:                 -11.585
REMARK INTRA:                   0.421
REMARK UNBOUND:                -0.236
REMARK SMILES COc1cc2nccc(Oc3ccc(NC(=O)Nc4cc(C)on4)c(Cl)c3)c2cc1OC
REMARK SMILES IDX 11 1 12 2 13 3 14 4 25 5 26 6 27 7 10 8 9 9 3 10 4 11 30 12
REMARK SMILES IDX 5 13 29 14 6 15 28 16 7 17 8 18 2 19 1 20 31 21 32 22 15 23
REMARK SMILES IDX 16 24 17 25 18 26 19 29 20 30 24 31 21 32 23 33 22 34
REMARK H PARENT 15 27 18 28
ROOT
ATOM      1  C   UNL     1     -38.861 163.089  -5.181  1.00  0.00    +0.129 A 
ATOM      2  C   UNL     1     -39.325 161.775  -5.194  1.00  0.00    +0.049 A 
ATOM      3  C   UNL     1     -39.581 161.104  -3.993  1.00  0.00    +0.031 A 
ATOM      4  C   UNL     1     -39.362 161.735  -2.766  1.00  0.00    +0.061 A 
ATOM      5  C   UNL     1     -38.868 163.056  -2.772  1.00  0.00    +0.068 A 
ATOM      6 Cl   UNL     1     -38.556 163.893  -1.287  1.00  0.00    -0.082 Cl
ATOM      7  C   UNL     1     -38.612 163.730  -3.969  1.00  0.00    +0.069 A 
ENDROOT
BRANCH   1   8
ATOM      8  O   UNL     1     -38.608 163.667  -6.405  1.00  0.00    -0.457 OA
BRANCH   8   9
ATOM      9  C   UNL     1     -37.719 163.011  -7.233  1.00  0.00    +0.138 A 
ATOM     10  C   UNL     1     -36.592 164.668 -10.955  1.00  0.00    +0.162 A 
ATOM     11  C   UNL     1     -36.068 163.457 -10.481  1.00  0.00    +0.079 A 
ATOM     12  C   UNL     1     -37.545 165.339 -10.175  1.00  0.00    +0.161 A 
ATOM     13  C   UNL     1     -36.437 162.910  -9.258  1.00  0.00    +0.078 A 
ATOM     14  C   UNL     1     -37.908 164.813  -8.931  1.00  0.00    +0.064 A 
ATOM     15  N   UNL     1     -35.883 161.744  -8.874  1.00  0.00    -0.256 NA
ATOM     16  C   UNL     1     -37.369 163.598  -8.464  1.00  0.00    +0.047 A 
ATOM     17  C   UNL     1     -36.228 161.231  -7.674  1.00  0.00    +0.115 A 
ATOM     18  C   UNL     1     -37.130 161.822  -6.818  1.00  0.00    +0.068 A 
BRANCH  10  19
ATOM     19  O   UNL     1     -36.209 165.247 -12.135  1.00  0.00    -0.493 OA
ATOM     20  C   UNL     1     -35.021 166.028 -12.143  1.00  0.00    +0.278 C 
ENDBRANCH  10  19
BRANCH  12  21
ATOM     21  O   UNL     1     -38.167 166.526 -10.462  1.00  0.00    -0.493 OA
ATOM     22  C   UNL     1     -37.511 167.712 -10.030  1.00  0.00    +0.278 C 
ENDBRANCH  12  21
ENDBRANCH   8   9
ENDBRANCH   1   8
BRANCH   4  23
ATOM     23  N   UNL     1     -39.599 161.115  -1.515  1.00  0.00    -0.306 N 
ATOM     24  C   UNL     1     -38.776 160.249  -0.816  1.00  0.00    +0.324 C 
ATOM     25  O   UNL     1     -37.685 159.851  -1.205  1.00  0.00    -0.248 OA
ATOM     26  N   UNL     1     -39.351 159.886   0.383  1.00  0.00    -0.289 N 
ATOM     27  H   UNL     1     -40.508 161.309  -1.115  1.00  0.00    +0.171 HD
ATOM     28  H   UNL     1     -40.234 160.274   0.672  1.00  0.00    +0.173 HD
BRANCH  26  29
ATOM     29  C   UNL     1     -38.797 159.028   1.307  1.00  0.00    +0.177 A 
ATOM     30  C   UNL     1     -39.274 158.635   2.576  1.00  0.00    +0.095 A 
ATOM     31  N   UNL     1     -37.628 158.437   1.033  1.00  0.00    -0.062 NA
ATOM     32  C   UNL     1     -38.321 157.769   3.052  1.00  0.00    +0.135 A 
ATOM     33  O   UNL     1     -37.332 157.647   2.129  1.00  0.00    -0.360 OA
ATOM     34  C   UNL     1     -38.164 156.989   4.291  1.00  0.00    +0.091 C 
ENDBRANCH  26  29
ENDBRANCH   4  23
TORSDOF 6
ENDMDL
MODEL 9
REMARK VINA RESULT:    -7.830     10.325     13.378
REMARK INTER + INTRA:         -10.812
REMARK INTER:                  -9.785
REMARK INTRA:                  -1.028
REMARK UNBOUND:                -0.236
REMARK SMILES COc1cc2nccc(Oc3ccc(NC(=O)Nc4cc(C)on4)c(Cl)c3)c2cc1OC
REMARK SMILES IDX 11 1 12 2 13 3 14 4 25 5 26 6 27 7 10 8 9 9 3 10 4 11 30 12
REMARK SMILES IDX 5 13 29 14 6 15 28 16 7 17 8 18 2 19 1 20 31 21 32 22 15 23
REMARK SMILES IDX 16 24 17 25 18 26 19 29 20 30 24 31 21 32 23 33 22 34
REMARK H PARENT 15 27 18 28
ROOT
ATOM      1  C   UNL     1     -36.926 148.336   4.360  1.00  0.00    +0.129 A 
ATOM      2  C   UNL     1     -35.595 148.689   4.573  1.00  0.00    +0.049 A 
ATOM      3  C   UNL     1     -35.276 149.823   5.330  1.00  0.00    +0.031 A 
ATOM      4  C   UNL     1     -36.287 150.623   5.869  1.00  0.00    +0.061 A 
ATOM      5  C   UNL     1     -37.628 150.266   5.621  1.00  0.00    +0.068 A 
ATOM      6 Cl   UNL     1     -38.931 151.224   6.243  1.00  0.00    -0.082 Cl
ATOM      7  C   UNL     1     -37.950 149.134   4.867  1.00  0.00    +0.069 A 
ENDROOT
BRANCH   1   8
ATOM      8  O   UNL     1     -37.153 147.223   3.582  1.00  0.00    -0.457 OA
BRANCH   8   9
ATOM      9  C   UNL     1     -37.503 147.443   2.264  1.00  0.00    +0.138 A 
ATOM     10  C   UNL     1     -34.659 147.021  -0.835  1.00  0.00    +0.162 A 
ATOM     11  C   UNL     1     -35.999 147.355  -1.083  1.00  0.00    +0.079 A 
ATOM     12  C   UNL     1     -34.245 146.848   0.493  1.00  0.00    +0.161 A 
ATOM     13  C   UNL     1     -36.936 147.494  -0.066  1.00  0.00    +0.078 A 
ATOM     14  C   UNL     1     -35.181 146.961   1.525  1.00  0.00    +0.064 A 
ATOM     15  N   UNL     1     -38.203 147.812  -0.390  1.00  0.00    -0.256 NA
ATOM     16  C   UNL     1     -36.526 147.291   1.262  1.00  0.00    +0.047 A 
ATOM     17  C   UNL     1     -39.113 147.923   0.602  1.00  0.00    +0.115 A 
ATOM     18  C   UNL     1     -38.820 147.744   1.935  1.00  0.00    +0.068 A 
BRANCH  10  19
ATOM     19  O   UNL     1     -33.731 146.835  -1.824  1.00  0.00    -0.493 OA
ATOM     20  C   UNL     1     -33.628 145.543  -2.410  1.00  0.00    +0.278 C 
ENDBRANCH  10  19
BRANCH  12  21
ATOM     21  O   UNL     1     -32.990 146.520   0.936  1.00  0.00    -0.493 OA
ATOM     22  C   UNL     1     -32.758 145.151   1.244  1.00  0.00    +0.278 C 
ENDBRANCH  12  21
ENDBRANCH   8   9
ENDBRANCH   1   8
BRANCH   4  23
ATOM     23  N   UNL     1     -36.036 151.783   6.641  1.00  0.00    -0.306 N 
ATOM     24  C   UNL     1     -36.007 153.103   6.226  1.00  0.00    +0.324 C 
ATOM     25  O   UNL     1     -36.175 153.479   5.072  1.00  0.00    -0.248 OA
ATOM     26  N   UNL     1     -35.758 153.946   7.287  1.00  0.00    -0.289 N 
ATOM     27  H   UNL     1     -35.809 151.602   7.610  1.00  0.00    +0.171 HD
ATOM     28  H   UNL     1     -35.666 153.588   8.223  1.00  0.00    +0.173 HD
BRANCH  26  29
ATOM     29  C   UNL     1     -35.655 155.318   7.210  1.00  0.00    +0.177 A 
ATOM     30  C   UNL     1     -36.667 156.302   7.204  1.00  0.00    +0.095 A 
ATOM     31  N   UNL     1     -34.443 155.879   7.125  1.00  0.00    -0.062 NA
ATOM     32  C   UNL     1     -35.992 157.494   7.110  1.00  0.00    +0.135 A 
ATOM     33  O   UNL     1     -34.657 157.244   7.063  1.00  0.00    -0.360 OA
ATOM     34  C   UNL     1     -36.399 158.908   7.054  1.00  0.00    +0.091 C 
ENDBRANCH  26  29
ENDBRANCH   4  23
TORSDOF 6
ENDMDL
MODEL 10
REMARK VINA RESULT:    -7.765     10.432     14.526
REMARK INTER + INTRA:         -10.725
REMARK INTER:                  -9.727
REMARK INTRA:                  -0.998
REMARK UNBOUND:                -0.236
REMARK SMILES COc1cc2nccc(Oc3ccc(NC(=O)Nc4cc(C)on4)c(Cl)c3)c2cc1OC
REMARK SMILES IDX 11 1 12 2 13 3 14 4 25 5 26 6 27 7 10 8 9 9 3 10 4 11 30 12
REMARK SMILES IDX 5 13 29 14 6 15 28 16 7 17 8 18 2 19 1 20 31 21 32 22 15 23
REMARK SMILES IDX 16 24 17 25 18 26 19 29 20 30 24 31 21 32 23 33 22 34
REMARK H PARENT 15 27 18 28
ROOT
ATOM      1  C   UNL     1     -36.796 148.394   3.840  1.00  0.00    +0.129 A 
ATOM      2  C   UNL     1     -35.484 148.772   4.119  1.00  0.00    +0.049 A 
ATOM      3  C   UNL     1     -35.225 149.861   4.960  1.00  0.00    +0.031 A 
ATOM      4  C   UNL     1     -36.277 150.591   5.520  1.00  0.00    +0.061 A 
ATOM      5  C   UNL     1     -37.597 150.210   5.206  1.00  0.00    +0.068 A 
ATOM      6 Cl   UNL     1     -38.949 151.083   5.850  1.00  0.00    -0.082 Cl
ATOM      7  C   UNL     1     -37.860 149.124   4.367  1.00  0.00    +0.069 A 
ENDROOT
BRANCH   1   8
ATOM      8  O   UNL     1     -36.963 147.330   2.981  1.00  0.00    -0.457 OA
BRANCH   8   9
ATOM      9  C   UNL     1     -36.182 146.215   3.210  1.00  0.00    +0.138 A 
ATOM     10  C   UNL     1     -33.031 145.197   0.583  1.00  0.00    +0.162 A 
ATOM     11  C   UNL     1     -33.318 144.453   1.738  1.00  0.00    +0.079 A 
ATOM     12  C   UNL     1     -33.837 146.302   0.278  1.00  0.00    +0.161 A 
ATOM     13  C   UNL     1     -34.354 144.786   2.603  1.00  0.00    +0.078 A 
ATOM     14  C   UNL     1     -34.867 146.663   1.152  1.00  0.00    +0.064 A 
ATOM     15  N   UNL     1     -34.560 144.022   3.692  1.00  0.00    -0.256 NA
ATOM     16  C   UNL     1     -35.142 145.912   2.312  1.00  0.00    +0.047 A 
ATOM     17  C   UNL     1     -35.554 144.365   4.541  1.00  0.00    +0.115 A 
ATOM     18  C   UNL     1     -36.384 145.447   4.352  1.00  0.00    +0.068 A 
BRANCH  10  19
ATOM     19  O   UNL     1     -31.988 144.913  -0.258  1.00  0.00    -0.493 OA
ATOM     20  C   UNL     1     -30.784 144.419   0.314  1.00  0.00    +0.278 C 
ENDBRANCH  10  19
BRANCH  12  21
ATOM     21  O   UNL     1     -33.716 147.148  -0.793  1.00  0.00    -0.493 OA
ATOM     22  C   UNL     1     -34.469 146.820  -1.956  1.00  0.00    +0.278 C 
ENDBRANCH  12  21
ENDBRANCH   8   9
ENDBRANCH   1   8
BRANCH   4  23
ATOM     23  N   UNL     1     -36.087 151.702   6.376  1.00  0.00    -0.306 N 
ATOM     24  C   UNL     1     -36.004 153.042   6.040  1.00  0.00    +0.324 C 
ATOM     25  O   UNL     1     -36.058 153.484   4.899  1.00  0.00    -0.248 OA
ATOM     26  N   UNL     1     -35.848 153.822   7.166  1.00  0.00    -0.289 N 
ATOM     27  H   UNL     1     -35.955 151.464   7.351  1.00  0.00    +0.171 HD
ATOM     28  H   UNL     1     -35.849 153.411   8.085  1.00  0.00    +0.173 HD
BRANCH  26  29
ATOM     29  C   UNL     1     -35.722 155.194   7.177  1.00  0.00    +0.177 A 
ATOM     30  C   UNL     1     -36.719 156.193   7.203  1.00  0.00    +0.095 A 
ATOM     31  N   UNL     1     -34.500 155.739   7.160  1.00  0.00    -0.062 NA
ATOM     32  C   UNL     1     -36.024 157.376   7.201  1.00  0.00    +0.135 A 
ATOM     33  O   UNL     1     -34.692 157.109   7.176  1.00  0.00    -0.360 OA
ATOM     34  C   UNL     1     -36.409 158.798   7.222  1.00  0.00    +0.091 C 
ENDBRANCH  26  29
ENDBRANCH   4  23
TORSDOF 6
ENDMDL
