MODEL 1
REMARK VINA RESULT:    -8.350      0.000      0.000
REMARK INTER + INTRA:         -11.700
REMARK INTER:                 -11.034
REMARK INTRA:                  -0.666
REMARK UNBOUND:                -0.666
REMARK SMILES O=[S@@]1CCc2nc(N3CCC(c4ncc(Cl)cn4)CC3)nc(NC3(CO)CCC3)c21
REMARK SMILES IDX 23 1 24 3 28 4 27 5 29 6 25 7 26 8 22 10 21 11 30 12 7 13
REMARK SMILES IDX 5 14 2 15 6 16 4 17 1 18 3 19 8 20 9 21 20 22 10 23 19 24
REMARK SMILES IDX 11 25 12 26 13 27 18 28 14 29 17 30 15 31 16 32
REMARK H PARENT 23 2 26 9
ROOT
ATOM      1  N   UNL     1     -38.101 162.177 -10.051  1.00  0.00    -0.361 N 
ATOM      2  H   UNL     1     -38.495 162.729 -10.820  1.00  0.00    +0.162 HD
ENDROOT
BRANCH   1   3
ATOM      3  C   UNL     1     -37.010 161.327 -10.491  1.00  0.00    +0.062 C 
ATOM      4  C   UNL     1     -36.740 159.244 -10.966  1.00  0.00    +0.005 C 
ATOM      5  C   UNL     1     -36.983 160.009  -9.650  1.00  0.00    +0.031 C 
ATOM      6  C   UNL     1     -37.387 160.430 -11.706  1.00  0.00    +0.031 C 
BRANCH   3   7
ATOM      7  C   UNL     1     -35.658 162.054 -10.499  1.00  0.00    +0.184 C 
BRANCH   7   8
ATOM      8  O   UNL     1     -35.221 162.333 -11.825  1.00  0.00    -0.394 OA
ATOM      9  H   UNL     1     -35.334 163.298 -11.955  1.00  0.00    +0.210 HD
ENDBRANCH   7   8
ENDBRANCH   3   7
ENDBRANCH   1   3
BRANCH   1  10
ATOM     10  C   UNL     1     -38.073 163.012  -8.908  1.00  0.00    +0.148 A 
ATOM     11  N   UNL     1     -38.211 162.473  -7.678  1.00  0.00    -0.194 NA
ATOM     12  C   UNL     1     -37.967 164.371  -9.056  1.00  0.00    +0.103 A 
ATOM     13  C   UNL     1     -38.178 163.276  -6.587  1.00  0.00    +0.227 A 
ATOM     14  C   UNL     1     -37.935 165.126  -7.912  1.00  0.00    +0.065 A 
ATOM     15  S   UNL     1     -37.801 165.327 -10.541  1.00  0.00    +0.059 S 
ATOM     16  N   UNL     1     -38.043 164.613  -6.680  1.00  0.00    -0.217 NA
ATOM     17  C   UNL     1     -37.799 166.603  -8.155  1.00  0.00    +0.072 C 
ATOM     18  O   UNL     1     -36.652 164.697 -11.273  1.00  0.00    -0.254 OA
ATOM     19  C   UNL     1     -37.159 166.728  -9.539  1.00  0.00    +0.117 C 
BRANCH  13  20
ATOM     20  N   UNL     1     -38.319 162.694  -5.321  1.00  0.00    -0.341 N 
ATOM     21  C   UNL     1     -38.946 163.581  -4.335  1.00  0.00    +0.120 C 
ATOM     22  C   UNL     1     -38.806 161.313  -5.354  1.00  0.00    +0.120 C 
ATOM     23  C   UNL     1     -38.874 162.966  -2.940  1.00  0.00    +0.033 C 
ATOM     24  C   UNL     1     -38.731 160.685  -3.965  1.00  0.00    +0.033 C 
ATOM     25  C   UNL     1     -39.462 161.554  -2.939  1.00  0.00    +0.061 C 
BRANCH  25  26
ATOM     26  C   UNL     1     -39.412 160.941  -1.560  1.00  0.00    +0.131 A 
ATOM     27  N   UNL     1     -39.741 159.636  -1.452  1.00  0.00    -0.240 NA
ATOM     28  N   UNL     1     -39.050 161.720  -0.521  1.00  0.00    -0.240 NA
ATOM     29  C   UNL     1     -39.698 159.104  -0.209  1.00  0.00    +0.135 A 
ATOM     30  C   UNL     1     -39.025 161.134   0.698  1.00  0.00    +0.135 A 
ATOM     31  C   UNL     1     -39.344 159.815   0.913  1.00  0.00    +0.077 A 
ATOM     32 Cl   UNL     1     -39.301 159.106   2.468  1.00  0.00    -0.081 Cl
ENDBRANCH  25  26
ENDBRANCH  13  20
ENDBRANCH   1  10
TORSDOF 6
ENDMDL
MODEL 2
REMARK VINA RESULT:    -8.324      1.203      1.460
REMARK INTER + INTRA:         -11.666
REMARK INTER:                 -10.788
REMARK INTRA:                  -0.877
REMARK UNBOUND:                -0.666
REMARK SMILES O=[S@@]1CCc2nc(N3CCC(c4ncc(Cl)cn4)CC3)nc(NC3(CO)CCC3)c21
REMARK SMILES IDX 23 1 24 3 28 4 27 5 29 6 25 7 26 8 22 10 21 11 30 12 7 13
REMARK SMILES IDX 5 14 2 15 6 16 4 17 1 18 3 19 8 20 9 21 20 22 10 23 19 24
REMARK SMILES IDX 11 25 12 26 13 27 18 28 14 29 17 30 15 31 16 32
REMARK H PARENT 23 2 26 9
ROOT
ATOM      1  N   UNL     1     -36.212 162.090  -9.478  1.00  0.00    -0.361 N 
ATOM      2  H   UNL     1     -35.404 161.657  -9.016  1.00  0.00    +0.162 HD
ENDROOT
BRANCH   1   3
ATOM      3  C   UNL     1     -36.865 161.182 -10.402  1.00  0.00    +0.062 C 
ATOM      4  C   UNL     1     -38.122 161.354 -12.143  1.00  0.00    +0.005 C 
ATOM      5  C   UNL     1     -38.343 161.633 -10.643  1.00  0.00    +0.031 C 
ATOM      6  C   UNL     1     -36.613 161.545 -11.896  1.00  0.00    +0.031 C 
BRANCH   3   7
ATOM      7  C   UNL     1     -36.756 159.713  -9.969  1.00  0.00    +0.184 C 
BRANCH   7   8
ATOM      8  O   UNL     1     -36.000 159.575  -8.770  1.00  0.00    -0.394 OA
ATOM      9  H   UNL     1     -35.282 160.241  -8.819  1.00  0.00    +0.210 HD
ENDBRANCH   7   8
ENDBRANCH   3   7
ENDBRANCH   1   3
BRANCH   1  10
ATOM     10  C   UNL     1     -36.874 162.880  -8.508  1.00  0.00    +0.148 A 
ATOM     11  N   UNL     1     -37.159 162.358  -7.297  1.00  0.00    -0.194 NA
ATOM     12  C   UNL     1     -37.278 164.152  -8.821  1.00  0.00    +0.103 A 
ATOM     13  C   UNL     1     -37.788 163.120  -6.370  1.00  0.00    +0.227 A 
ATOM     14  C   UNL     1     -37.904 164.871  -7.837  1.00  0.00    +0.065 A 
ATOM     15  S   UNL     1     -37.056 165.059 -10.330  1.00  0.00    +0.059 S 
ATOM     16  N   UNL     1     -38.175 164.386  -6.619  1.00  0.00    -0.217 NA
ATOM     17  C   UNL     1     -38.300 166.261  -8.250  1.00  0.00    +0.072 C 
ATOM     18  O   UNL     1     -35.586 164.962 -10.620  1.00  0.00    -0.254 OA
ATOM     19  C   UNL     1     -37.369 166.620  -9.410  1.00  0.00    +0.117 C 
BRANCH  13  20
ATOM     20  N   UNL     1     -38.070 162.558  -5.118  1.00  0.00    -0.341 N 
ATOM     21  C   UNL     1     -38.811 163.455  -4.225  1.00  0.00    +0.120 C 
ATOM     22  C   UNL     1     -38.541 161.172  -5.183  1.00  0.00    +0.120 C 
ATOM     23  C   UNL     1     -38.897 162.864  -2.821  1.00  0.00    +0.033 C 
ATOM     24  C   UNL     1     -38.623 160.567  -3.784  1.00  0.00    +0.033 C 
ATOM     25  C   UNL     1     -39.472 161.447  -2.863  1.00  0.00    +0.061 C 
BRANCH  25  26
ATOM     26  C   UNL     1     -39.577 160.857  -1.478  1.00  0.00    +0.131 A 
ATOM     27  N   UNL     1     -38.440 160.400  -0.913  1.00  0.00    -0.240 NA
ATOM     28  N   UNL     1     -40.788 160.815  -0.885  1.00  0.00    -0.240 NA
ATOM     29  C   UNL     1     -38.552 159.868   0.326  1.00  0.00    +0.135 A 
ATOM     30  C   UNL     1     -40.840 160.272   0.352  1.00  0.00    +0.135 A 
ATOM     31  C   UNL     1     -39.740 159.777   1.012  1.00  0.00    +0.077 A 
ATOM     32 Cl   UNL     1     -39.842 159.098   2.577  1.00  0.00    -0.081 Cl
ENDBRANCH  25  26
ENDBRANCH  13  20
ENDBRANCH   1  10
TORSDOF 6
ENDMDL
MODEL 3
REMARK VINA RESULT:    -8.298      1.119      1.724
REMARK INTER + INTRA:         -11.632
REMARK INTER:                 -11.115
REMARK INTRA:                  -0.517
REMARK UNBOUND:                -0.666
REMARK SMILES O=[S@@]1CCc2nc(N3CCC(c4ncc(Cl)cn4)CC3)nc(NC3(CO)CCC3)c21
REMARK SMILES IDX 23 1 24 3 28 4 27 5 29 6 25 7 26 8 22 10 21 11 30 12 7 13
REMARK SMILES IDX 5 14 2 15 6 16 4 17 1 18 3 19 8 20 9 21 20 22 10 23 19 24
REMARK SMILES IDX 11 25 12 26 13 27 18 28 14 29 17 30 15 31 16 32
REMARK H PARENT 23 2 26 9
ROOT
ATOM      1  N   UNL     1     -37.964 162.819 -11.169  1.00  0.00    -0.361 N 
ATOM      2  H   UNL     1     -38.062 163.484 -11.945  1.00  0.00    +0.162 HD
ENDROOT
BRANCH   1   3
ATOM      3  C   UNL     1     -37.049 161.739 -11.487  1.00  0.00    +0.062 C 
ATOM      4  C   UNL     1     -36.938 159.620 -11.113  1.00  0.00    +0.005 C 
ATOM      5  C   UNL     1     -36.790 160.865 -10.216  1.00  0.00    +0.031 C 
ATOM      6  C   UNL     1     -37.764 160.489 -12.081  1.00  0.00    +0.031 C 
BRANCH   3   7
ATOM      7  C   UNL     1     -35.752 162.231 -12.143  1.00  0.00    +0.184 C 
BRANCH   7   8
ATOM      8  O   UNL     1     -34.853 162.777 -11.183  1.00  0.00    -0.394 OA
ATOM      9  H   UNL     1     -34.159 163.247 -11.692  1.00  0.00    +0.210 HD
ENDBRANCH   7   8
ENDBRANCH   3   7
ENDBRANCH   1   3
BRANCH   1  10
ATOM     10  C   UNL     1     -37.948 163.575  -9.972  1.00  0.00    +0.148 A 
ATOM     11  N   UNL     1     -38.262 162.985  -8.800  1.00  0.00    -0.194 NA
ATOM     12  C   UNL     1     -37.673 164.918 -10.014  1.00  0.00    +0.103 A 
ATOM     13  C   UNL     1     -38.240 163.710  -7.657  1.00  0.00    +0.227 A 
ATOM     14  C   UNL     1     -37.662 165.593  -8.822  1.00  0.00    +0.065 A 
ATOM     15  S   UNL     1     -37.260 165.934 -11.409  1.00  0.00    +0.059 S 
ATOM     16  N   UNL     1     -37.945 165.025  -7.642  1.00  0.00    -0.217 NA
ATOM     17  C   UNL     1     -37.336 167.055  -8.947  1.00  0.00    +0.072 C 
ATOM     18  O   UNL     1     -36.127 165.215 -12.081  1.00  0.00    -0.254 OA
ATOM     19  C   UNL     1     -36.558 167.185 -10.258  1.00  0.00    +0.117 C 
BRANCH  13  20
ATOM     20  N   UNL     1     -38.566 163.075  -6.451  1.00  0.00    -0.341 N 
ATOM     21  C   UNL     1     -38.234 161.647  -6.433  1.00  0.00    +0.120 C 
ATOM     22  C   UNL     1     -38.200 163.844  -5.259  1.00  0.00    +0.120 C 
ATOM     23  C   UNL     1     -38.804 160.980  -5.184  1.00  0.00    +0.033 C 
ATOM     24  C   UNL     1     -38.772 163.190  -4.004  1.00  0.00    +0.033 C 
ATOM     25  C   UNL     1     -38.357 161.719  -3.922  1.00  0.00    +0.061 C 
BRANCH  25  26
ATOM     26  C   UNL     1     -38.902 161.060  -2.679  1.00  0.00    +0.131 A 
ATOM     27  N   UNL     1     -39.372 161.868  -1.705  1.00  0.00    -0.240 NA
ATOM     28  N   UNL     1     -38.887 159.713  -2.603  1.00  0.00    -0.240 NA
ATOM     29  C   UNL     1     -39.851 161.262  -0.595  1.00  0.00    +0.135 A 
ATOM     30  C   UNL     1     -39.378 159.163  -1.470  1.00  0.00    +0.135 A 
ATOM     31  C   UNL     1     -39.877 159.898  -0.422  1.00  0.00    +0.077 A 
ATOM     32 Cl   UNL     1     -40.491 159.169   0.997  1.00  0.00    -0.081 Cl
ENDBRANCH  25  26
ENDBRANCH  13  20
ENDBRANCH   1  10
TORSDOF 6
ENDMDL
MODEL 4
REMARK VINA RESULT:    -7.546      4.378      7.905
REMARK INTER + INTRA:         -10.639
REMARK INTER:                 -10.405
REMARK INTRA:                  -0.233
REMARK UNBOUND:                -0.666
REMARK SMILES O=[S@@]1CCc2nc(N3CCC(c4ncc(Cl)cn4)CC3)nc(NC3(CO)CCC3)c21
REMARK SMILES IDX 23 1 24 3 28 4 27 5 29 6 25 7 26 8 22 10 21 11 30 12 7 13
REMARK SMILES IDX 5 14 2 15 6 16 4 17 1 18 3 19 8 20 9 21 20 22 10 23 19 24
REMARK SMILES IDX 11 25 12 26 13 27 18 28 14 29 17 30 15 31 16 32
REMARK H PARENT 23 2 26 9
ROOT
ATOM      1  N   UNL     1     -38.257 163.946  -7.397  1.00  0.00    -0.361 N 
ATOM      2  H   UNL     1     -39.279 164.014  -7.445  1.00  0.00    +0.162 HD
ENDROOT
BRANCH   1   3
ATOM      3  C   UNL     1     -37.798 163.506  -6.092  1.00  0.00    +0.062 C 
ATOM      4  C   UNL     1     -37.950 161.719  -4.899  1.00  0.00    +0.005 C 
ATOM      5  C   UNL     1     -38.963 162.800  -5.324  1.00  0.00    +0.031 C 
ATOM      6  C   UNL     1     -37.106 162.111  -6.127  1.00  0.00    +0.031 C 
BRANCH   3   7
ATOM      7  C   UNL     1     -37.148 164.634  -5.280  1.00  0.00    +0.184 C 
BRANCH   7   8
ATOM      8  O   UNL     1     -38.125 165.460  -4.655  1.00  0.00    -0.394 OA
ATOM      9  H   UNL     1     -38.813 165.633  -5.332  1.00  0.00    +0.210 HD
ENDBRANCH   7   8
ENDBRANCH   3   7
ENDBRANCH   1   3
BRANCH   1  10
ATOM     10  C   UNL     1     -37.815 163.421  -8.635  1.00  0.00    +0.148 A 
ATOM     11  N   UNL     1     -37.771 162.085  -8.822  1.00  0.00    -0.194 NA
ATOM     12  C   UNL     1     -37.375 164.268  -9.620  1.00  0.00    +0.103 A 
ATOM     13  C   UNL     1     -37.353 161.588 -10.011  1.00  0.00    +0.227 A 
ATOM     14  C   UNL     1     -36.970 163.701 -10.800  1.00  0.00    +0.065 A 
ATOM     15  S   UNL     1     -37.303 166.041  -9.623  1.00  0.00    +0.059 S 
ATOM     16  N   UNL     1     -36.942 162.380 -11.020  1.00  0.00    -0.217 NA
ATOM     17  C   UNL     1     -36.520 164.694 -11.835  1.00  0.00    +0.072 C 
ATOM     18  O   UNL     1     -38.683 166.479  -9.226  1.00  0.00    -0.254 OA
ATOM     19  C   UNL     1     -37.205 166.010 -11.458  1.00  0.00    +0.117 C 
BRANCH  13  20
ATOM     20  N   UNL     1     -37.319 160.198 -10.183  1.00  0.00    -0.341 N 
ATOM     21  C   UNL     1     -37.164 159.784 -11.581  1.00  0.00    +0.120 C 
ATOM     22  C   UNL     1     -36.486 159.499  -9.202  1.00  0.00    +0.120 C 
ATOM     23  C   UNL     1     -37.348 158.275 -11.717  1.00  0.00    +0.033 C 
ATOM     24  C   UNL     1     -36.668 157.989  -9.323  1.00  0.00    +0.033 C 
ATOM     25  C   UNL     1     -36.418 157.527 -10.761  1.00  0.00    +0.061 C 
BRANCH  25  26
ATOM     26  C   UNL     1     -36.579 156.033 -10.897  1.00  0.00    +0.131 A 
ATOM     27  N   UNL     1     -37.837 155.545 -10.916  1.00  0.00    -0.240 NA
ATOM     28  N   UNL     1     -35.470 155.270 -10.987  1.00  0.00    -0.240 NA
ATOM     29  C   UNL     1     -37.964 154.203 -11.032  1.00  0.00    +0.135 A 
ATOM     30  C   UNL     1     -35.657 153.936 -11.101  1.00  0.00    +0.135 A 
ATOM     31  C   UNL     1     -36.896 153.343 -11.128  1.00  0.00    +0.077 A 
ATOM     32 Cl   UNL     1     -37.097 151.651 -11.274  1.00  0.00    -0.081 Cl
ENDBRANCH  25  26
ENDBRANCH  13  20
ENDBRANCH   1  10
TORSDOF 6
ENDMDL
MODEL 5
REMARK VINA RESULT:    -7.045     14.272     17.618
REMARK INTER + INTRA:          -9.976
REMARK INTER:                  -8.993
REMARK INTRA:                  -0.983
REMARK UNBOUND:                -0.666
REMARK SMILES O=[S@@]1CCc2nc(N3CCC(c4ncc(Cl)cn4)CC3)nc(NC3(CO)CCC3)c21
REMARK SMILES IDX 23 1 24 3 28 4 27 5 29 6 25 7 26 8 22 10 21 11 30 12 7 13
REMARK SMILES IDX 5 14 2 15 6 16 4 17 1 18 3 19 8 20 9 21 20 22 10 23 19 24
REMARK SMILES IDX 11 25 12 26 13 27 18 28 14 29 17 30 15 31 16 32
REMARK H PARENT 23 2 26 9
ROOT
ATOM      1  N   UNL     1     -36.031 146.736   2.123  1.00  0.00    -0.361 N 
ATOM      2  H   UNL     1     -37.012 146.817   1.832  1.00  0.00    +0.162 HD
ENDROOT
BRANCH   1   3
ATOM      3  C   UNL     1     -35.113 147.019   1.036  1.00  0.00    +0.062 C 
ATOM      4  C   UNL     1     -33.071 146.539   0.545  1.00  0.00    +0.005 C 
ATOM      5  C   UNL     1     -33.722 147.448   1.607  1.00  0.00    +0.031 C 
ATOM      6  C   UNL     1     -34.392 145.747   0.500  1.00  0.00    +0.031 C 
BRANCH   3   7
ATOM      7  C   UNL     1     -35.678 148.029   0.028  1.00  0.00    +0.184 C 
BRANCH   7   8
ATOM      8  O   UNL     1     -35.736 149.342   0.578  1.00  0.00    -0.394 OA
ATOM      9  H   UNL     1     -35.450 149.261   1.512  1.00  0.00    +0.210 HD
ENDBRANCH   7   8
ENDBRANCH   3   7
ENDBRANCH   1   3
BRANCH   1  10
ATOM     10  C   UNL     1     -35.938 147.274   3.429  1.00  0.00    +0.148 A 
ATOM     11  N   UNL     1     -36.030 148.607   3.615  1.00  0.00    -0.194 NA
ATOM     12  C   UNL     1     -35.693 146.446   4.494  1.00  0.00    +0.103 A 
ATOM     13  C   UNL     1     -35.946 149.117   4.867  1.00  0.00    +0.227 A 
ATOM     14  C   UNL     1     -35.623 147.024   5.735  1.00  0.00    +0.065 A 
ATOM     15  S   UNL     1     -35.504 144.682   4.522  1.00  0.00    +0.059 S 
ATOM     16  N   UNL     1     -35.738 148.341   5.949  1.00  0.00    -0.217 NA
ATOM     17  C   UNL     1     -35.371 146.051   6.852  1.00  0.00    +0.072 C 
ATOM     18  O   UNL     1     -36.716 144.158   3.806  1.00  0.00    -0.254 OA
ATOM     19  C   UNL     1     -35.854 144.697   6.327  1.00  0.00    +0.117 C 
BRANCH  13  20
ATOM     20  N   UNL     1     -36.048 150.504   5.037  1.00  0.00    -0.341 N 
ATOM     21  C   UNL     1     -37.333 150.932   5.600  1.00  0.00    +0.120 C 
ATOM     22  C   UNL     1     -34.849 151.121   5.609  1.00  0.00    +0.120 C 
ATOM     23  C   UNL     1     -37.456 152.453   5.559  1.00  0.00    +0.033 C 
ATOM     24  C   UNL     1     -34.957 152.643   5.565  1.00  0.00    +0.033 C 
ATOM     25  C   UNL     1     -36.252 153.113   6.233  1.00  0.00    +0.061 C 
BRANCH  25  26
ATOM     26  C   UNL     1     -36.369 154.617   6.213  1.00  0.00    +0.131 A 
ATOM     27  N   UNL     1     -37.165 155.163   5.269  1.00  0.00    -0.240 NA
ATOM     28  N   UNL     1     -35.678 155.330   7.126  1.00  0.00    -0.240 NA
ATOM     29  C   UNL     1     -37.254 156.513   5.260  1.00  0.00    +0.135 A 
ATOM     30  C   UNL     1     -35.805 156.675   7.069  1.00  0.00    +0.135 A 
ATOM     31  C   UNL     1     -36.588 157.326   6.146  1.00  0.00    +0.077 A 
ATOM     32 Cl   UNL     1     -36.726 159.030   6.103  1.00  0.00    -0.081 Cl
ENDBRANCH  25  26
ENDBRANCH  13  20
ENDBRANCH   1  10
TORSDOF 6
ENDMDL
MODEL 6
REMARK VINA RESULT:    -6.936      6.611     10.346
REMARK INTER + INTRA:          -9.832
REMARK INTER:                  -9.051
REMARK INTRA:                  -0.781
REMARK UNBOUND:                -0.666
REMARK SMILES O=[S@@]1CCc2nc(N3CCC(c4ncc(Cl)cn4)CC3)nc(NC3(CO)CCC3)c21
REMARK SMILES IDX 23 1 24 3 28 4 27 5 29 6 25 7 26 8 22 10 21 11 30 12 7 13
REMARK SMILES IDX 5 14 2 15 6 16 4 17 1 18 3 19 8 20 9 21 20 22 10 23 19 24
REMARK SMILES IDX 11 25 12 26 13 27 18 28 14 29 17 30 15 31 16 32
REMARK H PARENT 23 2 26 9
ROOT
ATOM      1  N   UNL     1     -38.851 160.509  -0.857  1.00  0.00    -0.361 N 
ATOM      2  H   UNL     1     -37.979 160.996  -0.620  1.00  0.00    +0.162 HD
ENDROOT
BRANCH   1   3
ATOM      3  C   UNL     1     -38.831 159.977  -2.207  1.00  0.00    +0.062 C 
ATOM      4  C   UNL     1     -38.583 160.763  -4.197  1.00  0.00    +0.005 C 
ATOM      5  C   UNL     1     -39.708 160.867  -3.147  1.00  0.00    +0.031 C 
ATOM      6  C   UNL     1     -37.610 160.470  -3.039  1.00  0.00    +0.031 C 
BRANCH   3   7
ATOM      7  C   UNL     1     -39.215 158.492  -2.266  1.00  0.00    +0.184 C 
BRANCH   7   8
ATOM      8  O   UNL     1     -38.230 157.670  -1.649  1.00  0.00    -0.394 OA
ATOM      9  H   UNL     1     -38.381 156.761  -1.983  1.00  0.00    +0.210 HD
ENDBRANCH   7   8
ENDBRANCH   3   7
ENDBRANCH   1   3
BRANCH   1  10
ATOM     10  C   UNL     1     -39.255 159.792   0.295  1.00  0.00    +0.148 A 
ATOM     11  N   UNL     1     -38.343 159.100   1.010  1.00  0.00    -0.194 NA
ATOM     12  C   UNL     1     -40.579 159.752   0.647  1.00  0.00    +0.103 A 
ATOM     13  C   UNL     1     -38.733 158.421   2.115  1.00  0.00    +0.227 A 
ATOM     14  C   UNL     1     -40.907 159.050   1.778  1.00  0.00    +0.065 A 
ATOM     15  S   UNL     1     -41.968 160.540  -0.126  1.00  0.00    +0.059 S 
ATOM     16  N   UNL     1     -40.018 158.378   2.520  1.00  0.00    -0.217 NA
ATOM     17  C   UNL     1     -42.373 159.069   2.108  1.00  0.00    +0.072 C 
ATOM     18  O   UNL     1     -41.570 161.983  -0.244  1.00  0.00    -0.254 OA
ATOM     19  C   UNL     1     -42.926 160.323   1.428  1.00  0.00    +0.117 C 
BRANCH  13  20
ATOM     20  N   UNL     1     -37.769 157.713   2.844  1.00  0.00    -0.341 N 
ATOM     21  C   UNL     1     -36.977 158.558   3.745  1.00  0.00    +0.120 C 
ATOM     22  C   UNL     1     -38.257 156.448   3.400  1.00  0.00    +0.120 C 
ATOM     23  C   UNL     1     -35.818 157.766   4.342  1.00  0.00    +0.033 C 
ATOM     24  C   UNL     1     -37.103 155.643   3.993  1.00  0.00    +0.033 C 
ATOM     25  C   UNL     1     -36.322 156.483   5.006  1.00  0.00    +0.061 C 
BRANCH  25  26
ATOM     26  C   UNL     1     -35.185 155.699   5.615  1.00  0.00    +0.131 A 
ATOM     27  N   UNL     1     -34.706 156.124   6.803  1.00  0.00    -0.240 NA
ATOM     28  N   UNL     1     -34.709 154.628   4.946  1.00  0.00    -0.240 NA
ATOM     29  C   UNL     1     -33.684 155.414   7.332  1.00  0.00    +0.135 A 
ATOM     30  C   UNL     1     -33.687 153.957   5.522  1.00  0.00    +0.135 A 
ATOM     31  C   UNL     1     -33.129 154.311   6.727  1.00  0.00    +0.077 A 
ATOM     32 Cl   UNL     1     -31.836 153.439   7.428  1.00  0.00    -0.081 Cl
ENDBRANCH  25  26
ENDBRANCH  13  20
ENDBRANCH   1  10
TORSDOF 6
ENDMDL
MODEL 7
REMARK VINA RESULT:    -6.772     15.902     18.665
REMARK INTER + INTRA:          -9.615
REMARK INTER:                  -8.941
REMARK INTRA:                  -0.674
REMARK UNBOUND:                -0.666
REMARK SMILES O=[S@@]1CCc2nc(N3CCC(c4ncc(Cl)cn4)CC3)nc(NC3(CO)CCC3)c21
REMARK SMILES IDX 23 1 24 3 28 4 27 5 29 6 25 7 26 8 22 10 21 11 30 12 7 13
REMARK SMILES IDX 5 14 2 15 6 16 4 17 1 18 3 19 8 20 9 21 20 22 10 23 19 24
REMARK SMILES IDX 11 25 12 26 13 27 18 28 14 29 17 30 15 31 16 32
REMARK H PARENT 23 2 26 9
ROOT
ATOM      1  N   UNL     1     -34.392 151.584   6.981  1.00  0.00    -0.361 N 
ATOM      2  H   UNL     1     -33.429 151.268   6.827  1.00  0.00    +0.162 HD
ENDROOT
BRANCH   1   3
ATOM      3  C   UNL     1     -34.656 152.863   6.349  1.00  0.00    +0.062 C 
ATOM      4  C   UNL     1     -36.101 154.447   6.559  1.00  0.00    +0.005 C 
ATOM      5  C   UNL     1     -36.181 153.000   6.032  1.00  0.00    +0.031 C 
ATOM      6  C   UNL     1     -34.863 154.019   7.372  1.00  0.00    +0.031 C 
BRANCH   3   7
ATOM      7  C   UNL     1     -33.770 153.112   5.121  1.00  0.00    +0.184 C 
BRANCH   7   8
ATOM      8  O   UNL     1     -33.752 151.985   4.250  1.00  0.00    -0.394 OA
ATOM      9  H   UNL     1     -34.433 152.155   3.565  1.00  0.00    +0.210 HD
ENDBRANCH   7   8
ENDBRANCH   3   7
ENDBRANCH   1   3
BRANCH   1  10
ATOM     10  C   UNL     1     -35.226 150.443   6.891  1.00  0.00    +0.148 A 
ATOM     11  N   UNL     1     -35.732 150.073   5.696  1.00  0.00    -0.194 NA
ATOM     12  C   UNL     1     -35.567 149.754   8.026  1.00  0.00    +0.103 A 
ATOM     13  C   UNL     1     -36.524 148.978   5.614  1.00  0.00    +0.227 A 
ATOM     14  C   UNL     1     -36.368 148.652   7.874  1.00  0.00    +0.065 A 
ATOM     15  S   UNL     1     -35.068 150.041   9.705  1.00  0.00    +0.059 S 
ATOM     16  N   UNL     1     -36.861 148.248   6.696  1.00  0.00    -0.217 NA
ATOM     17  C   UNL     1     -36.682 147.939   9.159  1.00  0.00    +0.072 C 
ATOM     18  O   UNL     1     -33.570 150.117   9.649  1.00  0.00    -0.254 OA
ATOM     19  C   UNL     1     -35.551 148.316  10.118  1.00  0.00    +0.117 C 
BRANCH  13  20
ATOM     20  N   UNL     1     -37.035 148.610   4.362  1.00  0.00    -0.341 N 
ATOM     21  C   UNL     1     -38.087 149.506   3.872  1.00  0.00    +0.120 C 
ATOM     22  C   UNL     1     -36.006 148.223   3.394  1.00  0.00    +0.120 C 
ATOM     23  C   UNL     1     -38.738 148.932   2.617  1.00  0.00    +0.033 C 
ATOM     24  C   UNL     1     -36.646 147.639   2.137  1.00  0.00    +0.033 C 
ATOM     25  C   UNL     1     -37.683 148.605   1.559  1.00  0.00    +0.061 C 
BRANCH  25  26
ATOM     26  C   UNL     1     -38.317 148.051   0.306  1.00  0.00    +0.131 A 
ATOM     27  N   UNL     1     -39.639 147.782   0.349  1.00  0.00    -0.240 NA
ATOM     28  N   UNL     1     -37.538 147.850  -0.776  1.00  0.00    -0.240 NA
ATOM     29  C   UNL     1     -40.190 147.280  -0.780  1.00  0.00    +0.135 A 
ATOM     30  C   UNL     1     -38.142 147.346  -1.875  1.00  0.00    +0.135 A 
ATOM     31  C   UNL     1     -39.480 147.038  -1.932  1.00  0.00    +0.077 A 
ATOM     32 Cl   UNL     1     -40.213 146.402  -3.340  1.00  0.00    -0.081 Cl
ENDBRANCH  25  26
ENDBRANCH  13  20
ENDBRANCH   1  10
TORSDOF 6
ENDMDL
MODEL 8
REMARK VINA RESULT:    -6.725     15.358     17.120
REMARK INTER + INTRA:          -9.553
REMARK INTER:                  -8.406
REMARK INTRA:                  -1.146
REMARK UNBOUND:                -0.666
REMARK SMILES O=[S@@]1CCc2nc(N3CCC(c4ncc(Cl)cn4)CC3)nc(NC3(CO)CCC3)c21
REMARK SMILES IDX 23 1 24 3 28 4 27 5 29 6 25 7 26 8 22 10 21 11 30 12 7 13
REMARK SMILES IDX 5 14 2 15 6 16 4 17 1 18 3 19 8 20 9 21 20 22 10 23 19 24
REMARK SMILES IDX 11 25 12 26 13 27 18 28 14 29 17 30 15 31 16 32
REMARK H PARENT 23 2 26 9
ROOT
ATOM      1  N   UNL     1     -37.255 146.517   1.363  1.00  0.00    -0.361 N 
ATOM      2  H   UNL     1     -37.606 145.554   1.324  1.00  0.00    +0.162 HD
ENDROOT
BRANCH   1   3
ATOM      3  C   UNL     1     -37.155 147.117   0.046  1.00  0.00    +0.062 C 
ATOM      4  C   UNL     1     -38.178 146.935  -1.841  1.00  0.00    +0.005 C 
ATOM      5  C   UNL     1     -37.228 146.010  -1.055  1.00  0.00    +0.031 C 
ATOM      6  C   UNL     1     -38.524 147.618  -0.503  1.00  0.00    +0.031 C 
BRANCH   3   7
ATOM      7  C   UNL     1     -35.923 148.021  -0.103  1.00  0.00    +0.184 C 
BRANCH   7   8
ATOM      8  O   UNL     1     -36.197 149.354   0.317  1.00  0.00    -0.394 OA
ATOM      9  H   UNL     1     -36.596 149.285   1.211  1.00  0.00    +0.210 HD
ENDBRANCH   7   8
ENDBRANCH   3   7
ENDBRANCH   1   3
BRANCH   1  10
ATOM     10  C   UNL     1     -37.844 147.131   2.495  1.00  0.00    +0.148 A 
ATOM     11  N   UNL     1     -37.353 148.299   2.958  1.00  0.00    -0.194 NA
ATOM     12  C   UNL     1     -38.871 146.506   3.155  1.00  0.00    +0.103 A 
ATOM     13  C   UNL     1     -37.924 148.885   4.038  1.00  0.00    +0.227 A 
ATOM     14  C   UNL     1     -39.407 147.154   4.237  1.00  0.00    +0.065 A 
ATOM     15  S   UNL     1     -39.676 144.971   2.777  1.00  0.00    +0.059 S 
ATOM     16  N   UNL     1     -38.955 148.327   4.700  1.00  0.00    -0.217 NA
ATOM     17  C   UNL     1     -40.539 146.417   4.895  1.00  0.00    +0.072 C 
ATOM     18  O   UNL     1     -40.068 145.091   1.333  1.00  0.00    -0.254 OA
ATOM     19  C   UNL     1     -41.102 145.491   3.815  1.00  0.00    +0.117 C 
BRANCH  13  20
ATOM     20  N   UNL     1     -37.400 150.100   4.498  1.00  0.00    -0.341 N 
ATOM     21  C   UNL     1     -38.427 151.085   4.853  1.00  0.00    +0.120 C 
ATOM     22  C   UNL     1     -36.291 149.947   5.443  1.00  0.00    +0.120 C 
ATOM     23  C   UNL     1     -37.792 152.442   5.140  1.00  0.00    +0.033 C 
ATOM     24  C   UNL     1     -35.643 151.299   5.731  1.00  0.00    +0.033 C 
ATOM     25  C   UNL     1     -36.690 152.314   6.193  1.00  0.00    +0.061 C 
BRANCH  25  26
ATOM     26  C   UNL     1     -36.065 153.654   6.498  1.00  0.00    +0.131 A 
ATOM     27  N   UNL     1     -36.900 154.678   6.772  1.00  0.00    -0.240 NA
ATOM     28  N   UNL     1     -34.720 153.757   6.477  1.00  0.00    -0.240 NA
ATOM     29  C   UNL     1     -36.324 155.873   7.036  1.00  0.00    +0.135 A 
ATOM     30  C   UNL     1     -34.201 154.976   6.749  1.00  0.00    +0.135 A 
ATOM     31  C   UNL     1     -34.965 156.081   7.037  1.00  0.00    +0.077 A 
ATOM     32 Cl   UNL     1     -34.274 157.607   7.376  1.00  0.00    -0.081 Cl
ENDBRANCH  25  26
ENDBRANCH  13  20
ENDBRANCH   1  10
TORSDOF 6
ENDMDL
MODEL 9
REMARK VINA RESULT:    -6.616     16.216     17.502
REMARK INTER + INTRA:          -9.410
REMARK INTER:                  -8.345
REMARK INTRA:                  -1.065
REMARK UNBOUND:                -0.666
REMARK SMILES O=[S@@]1CCc2nc(N3CCC(c4ncc(Cl)cn4)CC3)nc(NC3(CO)CCC3)c21
REMARK SMILES IDX 23 1 24 3 28 4 27 5 29 6 25 7 26 8 22 10 21 11 30 12 7 13
REMARK SMILES IDX 5 14 2 15 6 16 4 17 1 18 3 19 8 20 9 21 20 22 10 23 19 24
REMARK SMILES IDX 11 25 12 26 13 27 18 28 14 29 17 30 15 31 16 32
REMARK H PARENT 23 2 26 9
ROOT
ATOM      1  N   UNL     1     -37.567 148.179  -0.625  1.00  0.00    -0.361 N 
ATOM      2  H   UNL     1     -37.286 148.320  -1.602  1.00  0.00    +0.162 HD
ENDROOT
BRANCH   1   3
ATOM      3  C   UNL     1     -38.770 147.376  -0.513  1.00  0.00    +0.062 C 
ATOM      4  C   UNL     1     -39.804 146.312   1.049  1.00  0.00    +0.005 C 
ATOM      5  C   UNL     1     -38.474 146.077   0.306  1.00  0.00    +0.031 C 
ATOM      6  C   UNL     1     -39.680 147.802   0.677  1.00  0.00    +0.031 C 
BRANCH   3   7
ATOM      7  C   UNL     1     -39.419 147.084  -1.873  1.00  0.00    +0.184 C 
BRANCH   7   8
ATOM      8  O   UNL     1     -38.611 147.550  -2.950  1.00  0.00    -0.394 OA
ATOM      9  H   UNL     1     -38.953 147.114  -3.759  1.00  0.00    +0.210 HD
ENDBRANCH   7   8
ENDBRANCH   3   7
ENDBRANCH   1   3
BRANCH   1  10
ATOM     10  C   UNL     1     -36.383 147.982   0.126  1.00  0.00    +0.148 A 
ATOM     11  N   UNL     1     -36.354 148.316   1.433  1.00  0.00    -0.194 NA
ATOM     12  C   UNL     1     -35.252 147.511  -0.489  1.00  0.00    +0.103 A 
ATOM     13  C   UNL     1     -35.220 148.121   2.149  1.00  0.00    +0.227 A 
ATOM     14  C   UNL     1     -34.141 147.332   0.293  1.00  0.00    +0.065 A 
ATOM     15  S   UNL     1     -35.015 147.028  -2.180  1.00  0.00    +0.059 S 
ATOM     16  N   UNL     1     -34.094 147.631   1.597  1.00  0.00    -0.217 NA
ATOM     17  C   UNL     1     -32.949 146.796  -0.449  1.00  0.00    +0.072 C 
ATOM     18  O   UNL     1     -36.125 146.055  -2.457  1.00  0.00    -0.254 OA
ATOM     19  C   UNL     1     -33.522 146.082  -1.675  1.00  0.00    +0.117 C 
BRANCH  13  20
ATOM     20  N   UNL     1     -35.214 148.472   3.506  1.00  0.00    -0.341 N 
ATOM     21  C   UNL     1     -36.495 149.008   3.979  1.00  0.00    +0.120 C 
ATOM     22  C   UNL     1     -34.564 147.483   4.370  1.00  0.00    +0.120 C 
ATOM     23  C   UNL     1     -36.354 149.562   5.394  1.00  0.00    +0.033 C 
ATOM     24  C   UNL     1     -34.411 148.029   5.787  1.00  0.00    +0.033 C 
ATOM     25  C   UNL     1     -35.758 148.509   6.331  1.00  0.00    +0.061 C 
BRANCH  25  26
ATOM     26  C   UNL     1     -35.629 149.039   7.738  1.00  0.00    +0.131 A 
ATOM     27  N   UNL     1     -35.961 148.205   8.746  1.00  0.00    -0.240 NA
ATOM     28  N   UNL     1     -35.196 150.304   7.914  1.00  0.00    -0.240 NA
ATOM     29  C   UNL     1     -35.846 148.698  10.001  1.00  0.00    +0.135 A 
ATOM     30  C   UNL     1     -35.101 150.743   9.189  1.00  0.00    +0.135 A 
ATOM     31  C   UNL     1     -35.417 149.973  10.283  1.00  0.00    +0.077 A 
ATOM     32 Cl   UNL     1     -35.284 150.559  11.883  1.00  0.00    -0.081 Cl
ENDBRANCH  25  26
ENDBRANCH  13  20
ENDBRANCH   1  10
TORSDOF 6
ENDMDL
MODEL 10
REMARK VINA RESULT:    -6.547     15.120     20.263
REMARK INTER + INTRA:          -9.317
REMARK INTER:                  -8.162
REMARK INTRA:                  -1.155
REMARK UNBOUND:                -0.666
REMARK SMILES O=[S@@]1CCc2nc(N3CCC(c4ncc(Cl)cn4)CC3)nc(NC3(CO)CCC3)c21
REMARK SMILES IDX 23 1 24 3 28 4 27 5 29 6 25 7 26 8 22 10 21 11 30 12 7 13
REMARK SMILES IDX 5 14 2 15 6 16 4 17 1 18 3 19 8 20 9 21 20 22 10 23 19 24
REMARK SMILES IDX 11 25 12 26 13 27 18 28 14 29 17 30 15 31 16 32
REMARK H PARENT 23 2 26 9
ROOT
ATOM      1  N   UNL     1     -35.169 147.010  10.010  1.00  0.00    -0.361 N 
ATOM      2  H   UNL     1     -35.371 146.011  10.128  1.00  0.00    +0.162 HD
ENDROOT
BRANCH   1   3
ATOM      3  C   UNL     1     -33.797 147.335  10.351  1.00  0.00    +0.062 C 
ATOM      4  C   UNL     1     -31.899 146.317  10.352  1.00  0.00    +0.005 C 
ATOM      5  C   UNL     1     -33.172 146.189  11.212  1.00  0.00    +0.031 C 
ATOM      6  C   UNL     1     -32.780 146.928   9.245  1.00  0.00    +0.031 C 
BRANCH   3   7
ATOM      7  C   UNL     1     -33.660 148.715  11.010  1.00  0.00    +0.184 C 
BRANCH   7   8
ATOM      8  O   UNL     1     -33.268 149.709  10.069  1.00  0.00    -0.394 OA
ATOM      9  H   UNL     1     -33.682 149.459   9.216  1.00  0.00    +0.210 HD
ENDBRANCH   7   8
ENDBRANCH   3   7
ENDBRANCH   1   3
BRANCH   1  10
ATOM     10  C   UNL     1     -35.840 147.435   8.838  1.00  0.00    +0.148 A 
ATOM     11  N   UNL     1     -35.896 148.749   8.535  1.00  0.00    -0.194 NA
ATOM     12  C   UNL     1     -36.484 146.518   8.047  1.00  0.00    +0.103 A 
ATOM     13  C   UNL     1     -36.534 149.150   7.410  1.00  0.00    +0.227 A 
ATOM     14  C   UNL     1     -37.106 146.990   6.921  1.00  0.00    +0.065 A 
ATOM     15  S   UNL     1     -36.588 144.757   8.231  1.00  0.00    +0.059 S 
ATOM     16  N   UNL     1     -37.153 148.285   6.583  1.00  0.00    -0.217 NA
ATOM     17  C   UNL     1     -37.772 145.924   6.096  1.00  0.00    +0.072 C 
ATOM     18  O   UNL     1     -35.164 144.305   8.388  1.00  0.00    -0.254 OA
ATOM     19  C   UNL     1     -37.051 144.623   6.456  1.00  0.00    +0.117 C 
BRANCH  13  20
ATOM     20  N   UNL     1     -36.576 150.519   7.113  1.00  0.00    -0.341 N 
ATOM     21  C   UNL     1     -35.412 151.262   7.607  1.00  0.00    +0.120 C 
ATOM     22  C   UNL     1     -37.002 150.815   5.743  1.00  0.00    +0.120 C 
ATOM     23  C   UNL     1     -35.623 152.764   7.438  1.00  0.00    +0.033 C 
ATOM     24  C   UNL     1     -37.225 152.315   5.564  1.00  0.00    +0.033 C 
ATOM     25  C   UNL     1     -35.983 153.101   5.990  1.00  0.00    +0.061 C 
BRANCH  25  26
ATOM     26  C   UNL     1     -36.178 154.586   5.805  1.00  0.00    +0.131 A 
ATOM     27  N   UNL     1     -35.155 155.393   6.157  1.00  0.00    -0.240 NA
ATOM     28  N   UNL     1     -37.353 155.025   5.309  1.00  0.00    -0.240 NA
ATOM     29  C   UNL     1     -35.350 156.722   5.992  1.00  0.00    +0.135 A 
ATOM     30  C   UNL     1     -37.491 156.362   5.166  1.00  0.00    +0.135 A 
ATOM     31  C   UNL     1     -36.510 157.267   5.496  1.00  0.00    +0.077 A 
ATOM     32 Cl   UNL     1     -36.717 158.952   5.301  1.00  0.00    -0.081 Cl
ENDBRANCH  25  26
ENDBRANCH  13  20
ENDBRANCH   1  10
TORSDOF 6
ENDMDL
