REMARK SMILES Cc1ccc(NC(=O)c2ccc(CN3CCN(C)CC3)cc2)cc1Nc1nccc(-c2cccnc2)n1
REMARK SMILES IDX 6 1 7 2 8 3 5 5 2 6 3 7 24 8 4 9 23 10 1 11 25 12 26 14
REMARK SMILES IDX 27 15 37 16 28 17 30 18 29 19 31 20 32 21 36 22 33 23 35 24
REMARK SMILES IDX 34 25 9 26 10 27 22 28 11 29 21 30 12 31 13 32 14 33 15 34
REMARK SMILES IDX 20 35 16 36 19 37 17 38 18 39
REMARK H PARENT 6 4 25 13
ROOT
ATOM      1  N   UNL     1      -0.143  -1.903   0.990  1.00  0.00    -0.322 N 
ATOM      2  C   UNL     1       1.095  -2.512   1.082  1.00  0.00    +0.255 C 
ATOM      3  O   UNL     1       1.400  -3.458   1.799  1.00  0.00    -0.269 OA
ATOM      4  H   UNL     1      -0.268  -1.222   0.252  1.00  0.00    +0.170 HD
ENDROOT
BRANCH   1   5
ATOM      5  C   UNL     1      -1.297  -2.181   1.754  1.00  0.00    +0.043 A 
ATOM      6  C   UNL     1      -3.689  -2.590   3.182  1.00  0.00    -0.027 A 
ATOM      7  C   UNL     1      -2.517  -3.292   3.512  1.00  0.00    +0.008 A 
ATOM      8  C   UNL     1      -3.677  -1.664   2.114  1.00  0.00    +0.046 A 
ATOM      9  C   UNL     1      -1.332  -3.088   2.805  1.00  0.00    +0.026 A 
ATOM     10  C   UNL     1      -2.467  -1.477   1.425  1.00  0.00    +0.052 A 
ATOM     11  C   UNL     1      -4.931  -2.856   3.991  1.00  0.00    +0.046 C 
BRANCH   8  12
ATOM     12  N   UNL     1      -4.843  -0.954   1.791  1.00  0.00    -0.324 N 
ATOM     13  H   UNL     1      -5.684  -1.202   2.289  1.00  0.00    +0.170 HD
BRANCH  12  14
ATOM     14  C   UNL     1      -5.163   0.040   0.871  1.00  0.00    +0.227 A 
ATOM     15  N   UNL     1      -4.251   0.589   0.060  1.00  0.00    -0.221 NA
ATOM     16  N   UNL     1      -6.456   0.406   0.871  1.00  0.00    -0.213 NA
ATOM     17  C   UNL     1      -4.672   1.545  -0.784  1.00  0.00    +0.117 A 
ATOM     18  C   UNL     1      -6.857   1.377   0.019  1.00  0.00    +0.077 A 
ATOM     19  C   UNL     1      -5.971   1.982  -0.848  1.00  0.00    +0.049 A 
BRANCH  18  20
ATOM     20  C   UNL     1      -8.287   1.727   0.082  1.00  0.00    +0.019 A 
ATOM     21  C   UNL     1      -8.780   3.005  -0.223  1.00  0.00    +0.013 A 
ATOM     22  C   UNL     1      -9.247   0.787   0.464  1.00  0.00    +0.121 A 
ATOM     23  C   UNL     1     -10.147   3.278  -0.149  1.00  0.00    +0.021 A 
ATOM     24  N   UNL     1     -10.584   1.017   0.541  1.00  0.00    -0.264 NA
ATOM     25  C   UNL     1     -11.001   2.260   0.233  1.00  0.00    +0.111 A 
ENDBRANCH  18  20
ENDBRANCH  12  14
ENDBRANCH   8  12
ENDBRANCH   1   5
BRANCH   2  26
ATOM     26  C   UNL     1       2.133  -1.960   0.165  1.00  0.00    +0.040 A 
ATOM     27  C   UNL     1       2.201  -0.594  -0.135  1.00  0.00    +0.014 A 
ATOM     28  C   UNL     1       3.075  -2.837  -0.383  1.00  0.00    +0.014 A 
ATOM     29  C   UNL     1       3.191  -0.119  -0.998  1.00  0.00    +0.006 A 
ATOM     30  C   UNL     1       4.065  -2.359  -1.245  1.00  0.00    +0.006 A 
ATOM     31  C   UNL     1       4.136  -0.994  -1.558  1.00  0.00    -0.034 A 
BRANCH  31  32
ATOM     32  C   UNL     1       5.200  -0.479  -2.508  1.00  0.00    +0.120 C 
BRANCH  32  33
ATOM     33  N   UNL     1       5.936   0.682  -1.985  1.00  0.00    -0.297 NA
ATOM     34  C   UNL     1       6.689   1.338  -3.076  1.00  0.00    +0.100 C 
ATOM     35  C   UNL     1       6.828   0.334  -0.856  1.00  0.00    +0.100 C 
ATOM     36  C   UNL     1       7.873   2.178  -2.557  1.00  0.00    +0.099 C 
ATOM     37  C   UNL     1       8.319   0.176  -1.233  1.00  0.00    +0.099 C 
ATOM     38  N   UNL     1       8.911   1.343  -1.918  1.00  0.00    -0.304 NA
ATOM     39  C   UNL     1       9.729   2.147  -1.015  1.00  0.00    +0.105 C 
ENDBRANCH  32  33
ENDBRANCH  31  32
ENDBRANCH   2  26
TORSDOF 7
