MODEL 1
REMARK VINA RESULT:   -10.025      0.000      0.000
REMARK INTER + INTRA:         -15.049
REMARK INTER:                 -14.128
REMARK INTRA:                  -0.922
REMARK UNBOUND:                -0.922
REMARK SMILES Cc1ccc(NC(=O)c2ccc(CN3CCN(C)CC3)cc2)cc1Nc1nccc(-c2cccnc2)n1
REMARK SMILES IDX 6 1 7 2 8 3 5 5 2 6 3 7 24 8 4 9 23 10 1 11 25 12 26 14
REMARK SMILES IDX 27 15 37 16 28 17 30 18 29 19 31 20 32 21 36 22 33 23 35 24
REMARK SMILES IDX 34 25 9 26 10 27 22 28 11 29 21 30 12 31 13 32 14 33 15 34
REMARK SMILES IDX 20 35 16 36 19 37 17 38 18 39
REMARK H PARENT 6 4 25 13
ROOT
ATOM      1  N   UNL     1     -11.709   3.144 -13.741  1.00  0.00    -0.322 N 
ATOM      2  C   UNL     1     -12.974   2.980 -13.205  1.00  0.00    +0.255 C 
ATOM      3  O   UNL     1     -14.016   3.483 -13.609  1.00  0.00    -0.269 OA
ATOM      4  H   UNL     1     -10.974   2.554 -13.375  1.00  0.00    +0.170 HD
ENDROOT
BRANCH   1   5
ATOM      5  C   UNL     1     -11.331   3.982 -14.812  1.00  0.00    +0.043 A 
ATOM      6  C   UNL     1     -10.421   5.536 -16.976  1.00  0.00    -0.027 A 
ATOM      7  C   UNL     1     -11.518   5.945 -16.199  1.00  0.00    +0.008 A 
ATOM      8  C   UNL     1      -9.759   4.324 -16.676  1.00  0.00    +0.046 A 
ATOM      9  C   UNL     1     -11.968   5.175 -15.126  1.00  0.00    +0.026 A 
ATOM     10  C   UNL     1     -10.233   3.573 -15.587  1.00  0.00    +0.052 A 
ATOM     11  C   UNL     1      -9.986   6.419 -18.116  1.00  0.00    +0.046 C 
BRANCH   8  12
ATOM     12  N   UNL     1      -8.657   3.920 -17.444  1.00  0.00    -0.324 N 
ATOM     13  H   UNL     1      -8.788   3.867 -18.442  1.00  0.00    +0.170 HD
BRANCH  12  14
ATOM     14  C   UNL     1      -7.358   3.510 -17.156  1.00  0.00    +0.227 A 
ATOM     15  N   UNL     1      -6.323   4.358 -17.142  1.00  0.00    -0.221 NA
ATOM     16  N   UNL     1      -7.231   2.196 -16.903  1.00  0.00    -0.213 NA
ATOM     17  C   UNL     1      -5.113   3.849 -16.857  1.00  0.00    +0.117 A 
ATOM     18  C   UNL     1      -6.002   1.703 -16.626  1.00  0.00    +0.077 A 
ATOM     19  C   UNL     1      -4.892   2.521 -16.590  1.00  0.00    +0.049 A 
BRANCH  18  20
ATOM     20  C   UNL     1      -5.943   0.254 -16.365  1.00  0.00    +0.019 A 
ATOM     21  C   UNL     1      -4.871  -0.556 -16.770  1.00  0.00    +0.013 A 
ATOM     22  C   UNL     1      -6.975  -0.404 -15.694  1.00  0.00    +0.121 A 
ATOM     23  C   UNL     1      -4.867  -1.924 -16.491  1.00  0.00    +0.021 A 
ATOM     24  N   UNL     1      -7.001  -1.731 -15.402  1.00  0.00    -0.264 NA
ATOM     25  C   UNL     1      -5.945  -2.459 -15.810  1.00  0.00    +0.111 A 
ENDBRANCH  18  20
ENDBRANCH  12  14
ENDBRANCH   8  12
ENDBRANCH   1   5
BRANCH   2  26
ATOM     26  C   UNL     1     -13.044   2.054 -12.040  1.00  0.00    +0.040 A 
ATOM     27  C   UNL     1     -14.228   1.867 -11.316  1.00  0.00    +0.014 A 
ATOM     28  C   UNL     1     -11.896   1.337 -11.686  1.00  0.00    +0.014 A 
ATOM     29  C   UNL     1     -14.250   0.988 -10.231  1.00  0.00    +0.006 A 
ATOM     30  C   UNL     1     -11.921   0.457 -10.601  1.00  0.00    +0.006 A 
ATOM     31  C   UNL     1     -13.099   0.270  -9.865  1.00  0.00    -0.034 A 
BRANCH  31  32
ATOM     32  C   UNL     1     -13.120  -0.672  -8.677  1.00  0.00    +0.120 C 
BRANCH  32  33
ATOM     33  N   UNL     1     -12.665  -2.032  -9.003  1.00  0.00    -0.297 NA
ATOM     34  C   UNL     1     -13.691  -2.731  -9.807  1.00  0.00    +0.100 C 
ATOM     35  C   UNL     1     -12.303  -2.818  -7.802  1.00  0.00    +0.100 C 
ATOM     36  C   UNL     1     -13.564  -4.265  -9.726  1.00  0.00    +0.099 C 
ATOM     37  C   UNL     1     -13.383  -3.820  -7.332  1.00  0.00    +0.099 C 
ATOM     38  N   UNL     1     -13.832  -4.775  -8.365  1.00  0.00    -0.304 NA
ATOM     39  C   UNL     1     -13.229  -6.093  -8.186  1.00  0.00    +0.105 C 
ENDBRANCH  32  33
ENDBRANCH  31  32
ENDBRANCH   2  26
TORSDOF 7
ENDMDL
MODEL 2
REMARK VINA RESULT:    -9.815      1.394      1.743
REMARK INTER + INTRA:         -14.752
REMARK INTER:                 -13.784
REMARK INTRA:                  -0.968
REMARK UNBOUND:                -0.922
REMARK SMILES Cc1ccc(NC(=O)c2ccc(CN3CCN(C)CC3)cc2)cc1Nc1nccc(-c2cccnc2)n1
REMARK SMILES IDX 6 1 7 2 8 3 5 5 2 6 3 7 24 8 4 9 23 10 1 11 25 12 26 14
REMARK SMILES IDX 27 15 37 16 28 17 30 18 29 19 31 20 32 21 36 22 33 23 35 24
REMARK SMILES IDX 34 25 9 26 10 27 22 28 11 29 21 30 12 31 13 32 14 33 15 34
REMARK SMILES IDX 20 35 16 36 19 37 17 38 18 39
REMARK H PARENT 6 4 25 13
ROOT
ATOM      1  N   UNL     1     -11.772   3.179 -13.706  1.00  0.00    -0.322 N 
ATOM      2  C   UNL     1     -13.063   3.017 -13.238  1.00  0.00    +0.255 C 
ATOM      3  O   UNL     1     -14.085   3.506 -13.706  1.00  0.00    -0.269 OA
ATOM      4  H   UNL     1     -11.054   2.600 -13.290  1.00  0.00    +0.170 HD
ENDROOT
BRANCH   1   5
ATOM      5  C   UNL     1     -11.341   4.001 -14.770  1.00  0.00    +0.043 A 
ATOM      6  C   UNL     1     -10.332   5.515 -16.918  1.00  0.00    -0.027 A 
ATOM      7  C   UNL     1     -11.403   5.984 -16.139  1.00  0.00    +0.008 A 
ATOM      8  C   UNL     1      -9.747   4.262 -16.628  1.00  0.00    +0.046 A 
ATOM      9  C   UNL     1     -11.902   5.234 -15.074  1.00  0.00    +0.026 A 
ATOM     10  C   UNL     1     -10.268   3.533 -15.546  1.00  0.00    +0.052 A 
ATOM     11  C   UNL     1      -9.841   6.380 -18.050  1.00  0.00    +0.046 C 
BRANCH   8  12
ATOM     12  N   UNL     1      -8.669   3.798 -17.397  1.00  0.00    -0.324 N 
ATOM     13  H   UNL     1      -8.830   3.677 -18.385  1.00  0.00    +0.170 HD
BRANCH  12  14
ATOM     14  C   UNL     1      -7.366   3.398 -17.119  1.00  0.00    +0.227 A 
ATOM     15  N   UNL     1      -6.339   4.255 -17.105  1.00  0.00    -0.221 NA
ATOM     16  N   UNL     1      -7.225   2.084 -16.874  1.00  0.00    -0.213 NA
ATOM     17  C   UNL     1      -5.122   3.756 -16.830  1.00  0.00    +0.117 A 
ATOM     18  C   UNL     1      -5.990   1.601 -16.608  1.00  0.00    +0.077 A 
ATOM     19  C   UNL     1      -4.887   2.429 -16.573  1.00  0.00    +0.049 A 
BRANCH  18  20
ATOM     20  C   UNL     1      -5.915   0.151 -16.357  1.00  0.00    +0.019 A 
ATOM     21  C   UNL     1      -4.815  -0.638 -16.728  1.00  0.00    +0.013 A 
ATOM     22  C   UNL     1      -6.960  -0.530 -15.728  1.00  0.00    +0.121 A 
ATOM     23  C   UNL     1      -4.798  -2.008 -16.460  1.00  0.00    +0.021 A 
ATOM     24  N   UNL     1      -6.974  -1.860 -15.448  1.00  0.00    -0.264 NA
ATOM     25  C   UNL     1      -5.891  -2.567 -15.823  1.00  0.00    +0.111 A 
ENDBRANCH  18  20
ENDBRANCH  12  14
ENDBRANCH   8  12
ENDBRANCH   1   5
BRANCH   2  26
ATOM     26  C   UNL     1     -13.192   2.109 -12.061  1.00  0.00    +0.040 A 
ATOM     27  C   UNL     1     -14.399   1.970 -11.366  1.00  0.00    +0.014 A 
ATOM     28  C   UNL     1     -12.076   1.363 -11.669  1.00  0.00    +0.014 A 
ATOM     29  C   UNL     1     -14.476   1.107 -10.270  1.00  0.00    +0.006 A 
ATOM     30  C   UNL     1     -12.156   0.499 -10.573  1.00  0.00    +0.006 A 
ATOM     31  C   UNL     1     -13.358   0.360  -9.865  1.00  0.00    -0.034 A 
BRANCH  31  32
ATOM     32  C   UNL     1     -13.439  -0.564  -8.665  1.00  0.00    +0.120 C 
BRANCH  32  33
ATOM     33  N   UNL     1     -14.814  -0.792  -8.196  1.00  0.00    -0.297 NA
ATOM     34  C   UNL     1     -14.938  -0.393  -6.777  1.00  0.00    +0.100 C 
ATOM     35  C   UNL     1     -15.265  -2.187  -8.399  1.00  0.00    +0.100 C 
ATOM     36  C   UNL     1     -16.123  -1.080  -6.070  1.00  0.00    +0.099 C 
ATOM     37  C   UNL     1     -15.208  -3.077  -7.136  1.00  0.00    +0.099 C 
ATOM     38  N   UNL     1     -15.940  -2.543  -5.969  1.00  0.00    -0.304 NA
ATOM     39  C   UNL     1     -17.227  -3.207  -5.783  1.00  0.00    +0.105 C 
ENDBRANCH  32  33
ENDBRANCH  31  32
ENDBRANCH   2  26
TORSDOF 7
ENDMDL
MODEL 3
REMARK VINA RESULT:    -9.629      1.937      2.617
REMARK INTER + INTRA:         -14.491
REMARK INTER:                 -13.813
REMARK INTRA:                  -0.678
REMARK UNBOUND:                -0.922
REMARK SMILES Cc1ccc(NC(=O)c2ccc(CN3CCN(C)CC3)cc2)cc1Nc1nccc(-c2cccnc2)n1
REMARK SMILES IDX 6 1 7 2 8 3 5 5 2 6 3 7 24 8 4 9 23 10 1 11 25 12 26 14
REMARK SMILES IDX 27 15 37 16 28 17 30 18 29 19 31 20 32 21 36 22 33 23 35 24
REMARK SMILES IDX 34 25 9 26 10 27 22 28 11 29 21 30 12 31 13 32 14 33 15 34
REMARK SMILES IDX 20 35 16 36 19 37 17 38 18 39
REMARK H PARENT 6 4 25 13
ROOT
ATOM      1  N   UNL     1     -11.545   2.913 -13.526  1.00  0.00    -0.322 N 
ATOM      2  C   UNL     1     -12.842   2.835 -13.055  1.00  0.00    +0.255 C 
ATOM      3  O   UNL     1     -13.826   3.412 -13.503  1.00  0.00    -0.269 OA
ATOM      4  H   UNL     1     -10.871   2.270 -13.130  1.00  0.00    +0.170 HD
ENDROOT
BRANCH   1   5
ATOM      5  C   UNL     1     -11.056   3.730 -14.568  1.00  0.00    +0.043 A 
ATOM      6  C   UNL     1      -9.916   5.254 -16.644  1.00  0.00    -0.027 A 
ATOM      7  C   UNL     1     -11.148   5.614 -16.070  1.00  0.00    +0.008 A 
ATOM      8  C   UNL     1      -9.234   4.106 -16.180  1.00  0.00    +0.046 A 
ATOM      9  C   UNL     1     -11.711   4.860 -15.041  1.00  0.00    +0.026 A 
ATOM     10  C   UNL     1      -9.824   3.370 -15.140  1.00  0.00    +0.052 A 
ATOM     11  C   UNL     1      -9.364   6.117 -17.747  1.00  0.00    +0.046 C 
BRANCH   8  12
ATOM     12  N   UNL     1      -7.999   3.752 -16.744  1.00  0.00    -0.324 N 
ATOM     13  H   UNL     1      -7.455   4.492 -17.159  1.00  0.00    +0.170 HD
BRANCH  12  14
ATOM     14  C   UNL     1      -7.310   2.556 -16.925  1.00  0.00    +0.227 A 
ATOM     15  N   UNL     1      -6.697   2.246 -18.073  1.00  0.00    -0.221 NA
ATOM     16  N   UNL     1      -7.318   1.740 -15.857  1.00  0.00    -0.213 NA
ATOM     17  C   UNL     1      -6.068   1.061 -18.136  1.00  0.00    +0.117 A 
ATOM     18  C   UNL     1      -6.686   0.548 -15.944  1.00  0.00    +0.077 A 
ATOM     19  C   UNL     1      -6.030   0.166 -17.096  1.00  0.00    +0.049 A 
BRANCH  18  20
ATOM     20  C   UNL     1      -6.744  -0.293 -14.736  1.00  0.00    +0.019 A 
ATOM     21  C   UNL     1      -7.285   0.147 -13.518  1.00  0.00    +0.013 A 
ATOM     22  C   UNL     1      -6.245  -1.598 -14.736  1.00  0.00    +0.121 A 
ATOM     23  C   UNL     1      -7.316  -0.695 -12.406  1.00  0.00    +0.021 A 
ATOM     24  N   UNL     1      -6.265  -2.446 -13.675  1.00  0.00    -0.264 NA
ATOM     25  C   UNL     1      -6.800  -1.972 -12.533  1.00  0.00    +0.111 A 
ENDBRANCH  18  20
ENDBRANCH  12  14
ENDBRANCH   8  12
ENDBRANCH   1   5
BRANCH   2  26
ATOM     26  C   UNL     1     -13.034   1.907 -11.904  1.00  0.00    +0.040 A 
ATOM     27  C   UNL     1     -11.991   1.109 -11.417  1.00  0.00    +0.014 A 
ATOM     28  C   UNL     1     -14.288   1.860 -11.285  1.00  0.00    +0.014 A 
ATOM     29  C   UNL     1     -12.215   0.255 -10.335  1.00  0.00    +0.006 A 
ATOM     30  C   UNL     1     -14.509   1.005 -10.203  1.00  0.00    +0.006 A 
ATOM     31  C   UNL     1     -13.473   0.197  -9.713  1.00  0.00    -0.034 A 
BRANCH  31  32
ATOM     32  C   UNL     1     -13.718  -0.744  -8.549  1.00  0.00    +0.120 C 
BRANCH  32  33
ATOM     33  N   UNL     1     -15.137  -0.857  -8.180  1.00  0.00    -0.297 NA
ATOM     34  C   UNL     1     -15.352  -0.309  -6.823  1.00  0.00    +0.100 C 
ATOM     35  C   UNL     1     -15.648  -2.242  -8.282  1.00  0.00    +0.100 C 
ATOM     36  C   UNL     1     -16.627  -0.862  -6.156  1.00  0.00    +0.099 C 
ATOM     37  C   UNL     1     -15.742  -2.999  -6.937  1.00  0.00    +0.099 C 
ATOM     38  N   UNL     1     -16.535  -2.314  -5.896  1.00  0.00    -0.304 NA
ATOM     39  C   UNL     1     -17.868  -2.894  -5.757  1.00  0.00    +0.105 C 
ENDBRANCH  32  33
ENDBRANCH  31  32
ENDBRANCH   2  26
TORSDOF 7
ENDMDL
MODEL 4
REMARK VINA RESULT:    -9.603      2.724      6.055
REMARK INTER + INTRA:         -14.454
REMARK INTER:                 -13.784
REMARK INTRA:                  -0.670
REMARK UNBOUND:                -0.922
REMARK SMILES Cc1ccc(NC(=O)c2ccc(CN3CCN(C)CC3)cc2)cc1Nc1nccc(-c2cccnc2)n1
REMARK SMILES IDX 6 1 7 2 8 3 5 5 2 6 3 7 24 8 4 9 23 10 1 11 25 12 26 14
REMARK SMILES IDX 27 15 37 16 28 17 30 18 29 19 31 20 32 21 36 22 33 23 35 24
REMARK SMILES IDX 34 25 9 26 10 27 22 28 11 29 21 30 12 31 13 32 14 33 15 34
REMARK SMILES IDX 20 35 16 36 19 37 17 38 18 39
REMARK H PARENT 6 4 25 13
ROOT
ATOM      1  N   UNL     1      -8.939   0.453 -12.640  1.00  0.00    -0.322 N 
ATOM      2  C   UNL     1     -10.070  -0.293 -12.914  1.00  0.00    +0.255 C 
ATOM      3  O   UNL     1     -10.424  -0.722 -14.006  1.00  0.00    -0.269 OA
ATOM      4  H   UNL     1      -8.718   0.616 -11.666  1.00  0.00    +0.170 HD
ENDROOT
BRANCH   1   5
ATOM      5  C   UNL     1      -7.992   0.950 -13.562  1.00  0.00    +0.043 A 
ATOM      6  C   UNL     1      -6.250   2.038 -15.488  1.00  0.00    -0.027 A 
ATOM      7  C   UNL     1      -5.804   1.075 -14.567  1.00  0.00    +0.008 A 
ATOM      8  C   UNL     1      -7.593   2.477 -15.452  1.00  0.00    +0.046 A 
ATOM      9  C   UNL     1      -6.668   0.535 -13.614  1.00  0.00    +0.026 A 
ATOM     10  C   UNL     1      -8.440   1.911 -14.484  1.00  0.00    +0.052 A 
ATOM     11  C   UNL     1      -5.265   2.573 -16.493  1.00  0.00    +0.046 C 
BRANCH   8  12
ATOM     12  N   UNL     1      -8.043   3.429 -16.378  1.00  0.00    -0.324 N 
ATOM     13  H   UNL     1      -7.474   3.577 -17.198  1.00  0.00    +0.170 HD
BRANCH  12  14
ATOM     14  C   UNL     1      -9.121   4.307 -16.438  1.00  0.00    +0.227 A 
ATOM     15  N   UNL     1     -10.139   4.255 -15.570  1.00  0.00    -0.221 NA
ATOM     16  N   UNL     1      -9.060   5.201 -17.439  1.00  0.00    -0.213 NA
ATOM     17  C   UNL     1     -11.129   5.148 -15.726  1.00  0.00    +0.117 A 
ATOM     18  C   UNL     1     -10.072   6.086 -17.584  1.00  0.00    +0.077 A 
ATOM     19  C   UNL     1     -11.149   6.092 -16.722  1.00  0.00    +0.049 A 
BRANCH  18  20
ATOM     20  C   UNL     1      -9.935   7.030 -18.707  1.00  0.00    +0.019 A 
ATOM     21  C   UNL     1      -9.435   8.333 -18.560  1.00  0.00    +0.013 A 
ATOM     22  C   UNL     1     -10.311   6.673 -20.004  1.00  0.00    +0.121 A 
ATOM     23  C   UNL     1      -9.325   9.183 -19.662  1.00  0.00    +0.021 A 
ATOM     24  N   UNL     1     -10.212   7.472 -21.099  1.00  0.00    -0.264 NA
ATOM     25  C   UNL     1      -9.721   8.710 -20.899  1.00  0.00    +0.111 A 
ENDBRANCH  18  20
ENDBRANCH  12  14
ENDBRANCH   8  12
ENDBRANCH   1   5
BRANCH   2  26
ATOM     26  C   UNL     1     -10.902  -0.627 -11.723  1.00  0.00    +0.040 A 
ATOM     27  C   UNL     1     -11.024  -1.941 -11.254  1.00  0.00    +0.014 A 
ATOM     28  C   UNL     1     -11.552   0.412 -11.048  1.00  0.00    +0.014 A 
ATOM     29  C   UNL     1     -11.812  -2.210 -10.133  1.00  0.00    +0.006 A 
ATOM     30  C   UNL     1     -12.339   0.140  -9.927  1.00  0.00    +0.006 A 
ATOM     31  C   UNL     1     -12.474  -1.174  -9.455  1.00  0.00    -0.034 A 
BRANCH  31  32
ATOM     32  C   UNL     1     -13.343  -1.470  -8.248  1.00  0.00    +0.120 C 
BRANCH  32  33
ATOM     33  N   UNL     1     -14.752  -1.095  -8.438  1.00  0.00    -0.297 NA
ATOM     34  C   UNL     1     -15.187  -0.190  -7.352  1.00  0.00    +0.100 C 
ATOM     35  C   UNL     1     -15.648  -2.269  -8.545  1.00  0.00    +0.100 C 
ATOM     36  C   UNL     1     -16.716  -0.191  -7.157  1.00  0.00    +0.099 C 
ATOM     37  C   UNL     1     -16.423  -2.613  -7.251  1.00  0.00    +0.099 C 
ATOM     38  N   UNL     1     -17.219  -1.501  -6.693  1.00  0.00    -0.304 NA
ATOM     39  C   UNL     1     -18.639  -1.641  -6.999  1.00  0.00    +0.105 C 
ENDBRANCH  32  33
ENDBRANCH  31  32
ENDBRANCH   2  26
TORSDOF 7
ENDMDL
MODEL 5
REMARK VINA RESULT:    -9.585      2.383      5.498
REMARK INTER + INTRA:         -14.429
REMARK INTER:                 -13.374
REMARK INTRA:                  -1.055
REMARK UNBOUND:                -0.922
REMARK SMILES Cc1ccc(NC(=O)c2ccc(CN3CCN(C)CC3)cc2)cc1Nc1nccc(-c2cccnc2)n1
REMARK SMILES IDX 6 1 7 2 8 3 5 5 2 6 3 7 24 8 4 9 23 10 1 11 25 12 26 14
REMARK SMILES IDX 27 15 37 16 28 17 30 18 29 19 31 20 32 21 36 22 33 23 35 24
REMARK SMILES IDX 34 25 9 26 10 27 22 28 11 29 21 30 12 31 13 32 14 33 15 34
REMARK SMILES IDX 20 35 16 36 19 37 17 38 18 39
REMARK H PARENT 6 4 25 13
ROOT
ATOM      1  N   UNL     1      -8.656   0.385 -12.831  1.00  0.00    -0.322 N 
ATOM      2  C   UNL     1      -9.904  -0.136 -13.118  1.00  0.00    +0.255 C 
ATOM      3  O   UNL     1     -10.356  -0.399 -14.227  1.00  0.00    -0.269 OA
ATOM      4  H   UNL     1      -8.383   0.418 -11.857  1.00  0.00    +0.170 HD
ENDROOT
BRANCH   1   5
ATOM      5  C   UNL     1      -7.667   0.804 -13.747  1.00  0.00    +0.043 A 
ATOM      6  C   UNL     1      -5.829   1.753 -15.658  1.00  0.00    -0.027 A 
ATOM      7  C   UNL     1      -5.486   0.718 -14.772  1.00  0.00    +0.008 A 
ATOM      8  C   UNL     1      -7.116   2.336 -15.593  1.00  0.00    +0.046 A 
ATOM      9  C   UNL     1      -6.397   0.247 -13.826  1.00  0.00    +0.026 A 
ATOM     10  C   UNL     1      -8.012   1.837 -14.634  1.00  0.00    +0.052 A 
ATOM     11  C   UNL     1      -4.798   2.209 -16.656  1.00  0.00    +0.046 C 
BRANCH   8  12
ATOM     12  N   UNL     1      -7.464   3.362 -16.485  1.00  0.00    -0.324 N 
ATOM     13  H   UNL     1      -6.832   3.538 -17.251  1.00  0.00    +0.170 HD
BRANCH  12  14
ATOM     14  C   UNL     1      -8.504   4.283 -16.563  1.00  0.00    +0.227 A 
ATOM     15  N   UNL     1      -8.434   5.385 -17.319  1.00  0.00    -0.221 NA
ATOM     16  N   UNL     1      -9.577   3.978 -15.813  1.00  0.00    -0.213 NA
ATOM     17  C   UNL     1      -9.496   6.206 -17.312  1.00  0.00    +0.117 A 
ATOM     18  C   UNL     1     -10.633   4.824 -15.814  1.00  0.00    +0.077 A 
ATOM     19  C   UNL     1     -10.629   5.975 -16.574  1.00  0.00    +0.049 A 
BRANCH  18  20
ATOM     20  C   UNL     1     -11.768   4.424 -14.964  1.00  0.00    +0.019 A 
ATOM     21  C   UNL     1     -11.663   3.471 -13.940  1.00  0.00    +0.013 A 
ATOM     22  C   UNL     1     -13.037   4.981 -15.140  1.00  0.00    +0.121 A 
ATOM     23  C   UNL     1     -12.773   3.134 -13.163  1.00  0.00    +0.021 A 
ATOM     24  N   UNL     1     -14.136   4.681 -14.400  1.00  0.00    -0.264 NA
ATOM     25  C   UNL     1     -13.976   3.762 -13.428  1.00  0.00    +0.111 A 
ENDBRANCH  18  20
ENDBRANCH  12  14
ENDBRANCH   8  12
ENDBRANCH   1   5
BRANCH   2  26
ATOM     26  C   UNL     1     -10.744  -0.440 -11.925  1.00  0.00    +0.040 A 
ATOM     27  C   UNL     1     -11.496   0.551 -11.281  1.00  0.00    +0.014 A 
ATOM     28  C   UNL     1     -10.796  -1.758 -11.462  1.00  0.00    +0.014 A 
ATOM     29  C   UNL     1     -12.272   0.223 -10.167  1.00  0.00    +0.006 A 
ATOM     30  C   UNL     1     -11.574  -2.084 -10.348  1.00  0.00    +0.006 A 
ATOM     31  C   UNL     1     -12.323  -1.097  -9.692  1.00  0.00    -0.034 A 
BRANCH  31  32
ATOM     32  C   UNL     1     -13.153  -1.449  -8.472  1.00  0.00    +0.120 C 
BRANCH  32  33
ATOM     33  N   UNL     1     -14.558  -1.028  -8.581  1.00  0.00    -0.297 NA
ATOM     34  C   UNL     1     -14.939  -0.223  -7.400  1.00  0.00    +0.100 C 
ATOM     35  C   UNL     1     -15.484  -2.166  -8.772  1.00  0.00    +0.100 C 
ATOM     36  C   UNL     1     -16.462  -0.210  -7.158  1.00  0.00    +0.099 C 
ATOM     37  C   UNL     1     -16.229  -2.617  -7.494  1.00  0.00    +0.099 C 
ATOM     38  N   UNL     1     -16.981  -1.547  -6.807  1.00  0.00    -0.304 NA
ATOM     39  C   UNL     1     -18.413  -1.627  -7.081  1.00  0.00    +0.105 C 
ENDBRANCH  32  33
ENDBRANCH  31  32
ENDBRANCH   2  26
TORSDOF 7
ENDMDL
MODEL 6
REMARK VINA RESULT:    -9.582      1.604      2.232
REMARK INTER + INTRA:         -14.424
REMARK INTER:                 -13.487
REMARK INTRA:                  -0.937
REMARK UNBOUND:                -0.922
REMARK SMILES Cc1ccc(NC(=O)c2ccc(CN3CCN(C)CC3)cc2)cc1Nc1nccc(-c2cccnc2)n1
REMARK SMILES IDX 6 1 7 2 8 3 5 5 2 6 3 7 24 8 4 9 23 10 1 11 25 12 26 14
REMARK SMILES IDX 27 15 37 16 28 17 30 18 29 19 31 20 32 21 36 22 33 23 35 24
REMARK SMILES IDX 34 25 9 26 10 27 22 28 11 29 21 30 12 31 13 32 14 33 15 34
REMARK SMILES IDX 20 35 16 36 19 37 17 38 18 39
REMARK H PARENT 6 4 25 13
ROOT
ATOM      1  N   UNL     1     -11.711   3.220 -13.760  1.00  0.00    -0.322 N 
ATOM      2  C   UNL     1     -12.973   2.944 -13.265  1.00  0.00    +0.255 C 
ATOM      3  O   UNL     1     -14.044   3.318 -13.728  1.00  0.00    -0.269 OA
ATOM      4  H   UNL     1     -10.934   2.726 -13.342  1.00  0.00    +0.170 HD
ENDROOT
BRANCH   1   5
ATOM      5  C   UNL     1     -11.378   4.052 -14.851  1.00  0.00    +0.043 A 
ATOM      6  C   UNL     1     -10.554   5.602 -17.052  1.00  0.00    -0.027 A 
ATOM      7  C   UNL     1     -11.667   5.973 -16.278  1.00  0.00    +0.008 A 
ATOM      8  C   UNL     1      -9.833   4.430 -16.729  1.00  0.00    +0.046 A 
ATOM      9  C   UNL     1     -12.074   5.206 -15.187  1.00  0.00    +0.026 A 
ATOM     10  C   UNL     1     -10.264   3.681 -15.622  1.00  0.00    +0.052 A 
ATOM     11  C   UNL     1     -10.167   6.480 -18.213  1.00  0.00    +0.046 C 
BRANCH   8  12
ATOM     12  N   UNL     1      -8.714   4.064 -17.493  1.00  0.00    -0.324 N 
ATOM     13  H   UNL     1      -8.829   4.046 -18.495  1.00  0.00    +0.170 HD
BRANCH  12  14
ATOM     14  C   UNL     1      -7.417   3.655 -17.200  1.00  0.00    +0.227 A 
ATOM     15  N   UNL     1      -6.382   4.503 -17.184  1.00  0.00    -0.221 NA
ATOM     16  N   UNL     1      -7.290   2.342 -16.943  1.00  0.00    -0.213 NA
ATOM     17  C   UNL     1      -5.173   3.995 -16.894  1.00  0.00    +0.117 A 
ATOM     18  C   UNL     1      -6.062   1.850 -16.662  1.00  0.00    +0.077 A 
ATOM     19  C   UNL     1      -4.953   2.668 -16.623  1.00  0.00    +0.049 A 
BRANCH  18  20
ATOM     20  C   UNL     1      -6.003   0.401 -16.397  1.00  0.00    +0.019 A 
ATOM     21  C   UNL     1      -4.984  -0.429 -16.889  1.00  0.00    +0.013 A 
ATOM     22  C   UNL     1      -6.983  -0.237 -15.633  1.00  0.00    +0.121 A 
ATOM     23  C   UNL     1      -4.978  -1.795 -16.603  1.00  0.00    +0.021 A 
ATOM     24  N   UNL     1      -7.004  -1.561 -15.331  1.00  0.00    -0.264 NA
ATOM     25  C   UNL     1      -6.000  -2.309 -15.826  1.00  0.00    +0.111 A 
ENDBRANCH  18  20
ENDBRANCH  12  14
ENDBRANCH   8  12
ENDBRANCH   1   5
BRANCH   2  26
ATOM     26  C   UNL     1     -12.994   2.060 -12.065  1.00  0.00    +0.040 A 
ATOM     27  C   UNL     1     -14.153   1.882 -11.300  1.00  0.00    +0.014 A 
ATOM     28  C   UNL     1     -11.824   1.375 -11.719  1.00  0.00    +0.014 A 
ATOM     29  C   UNL     1     -14.129   1.043 -10.184  1.00  0.00    +0.006 A 
ATOM     30  C   UNL     1     -11.804   0.536 -10.602  1.00  0.00    +0.006 A 
ATOM     31  C   UNL     1     -12.957   0.358  -9.826  1.00  0.00    -0.034 A 
BRANCH  31  32
ATOM     32  C   UNL     1     -12.929  -0.540  -8.603  1.00  0.00    +0.120 C 
BRANCH  32  33
ATOM     33  N   UNL     1     -11.861  -0.196  -7.653  1.00  0.00    -0.297 NA
ATOM     34  C   UNL     1     -11.223  -1.428  -7.139  1.00  0.00    +0.100 C 
ATOM     35  C   UNL     1     -12.336   0.661  -6.542  1.00  0.00    +0.100 C 
ATOM     36  C   UNL     1     -10.513  -1.209  -5.788  1.00  0.00    +0.099 C 
ATOM     37  C   UNL     1     -12.605  -0.087  -5.216  1.00  0.00    +0.099 C 
ATOM     38  N   UNL     1     -11.463  -0.874  -4.707  1.00  0.00    -0.304 NA
ATOM     39  C   UNL     1     -10.775  -0.192  -3.616  1.00  0.00    +0.105 C 
ENDBRANCH  32  33
ENDBRANCH  31  32
ENDBRANCH   2  26
TORSDOF 7
ENDMDL
MODEL 7
REMARK VINA RESULT:    -9.555      3.186      8.233
REMARK INTER + INTRA:         -14.387
REMARK INTER:                 -13.447
REMARK INTRA:                  -0.940
REMARK UNBOUND:                -0.922
REMARK SMILES Cc1ccc(NC(=O)c2ccc(CN3CCN(C)CC3)cc2)cc1Nc1nccc(-c2cccnc2)n1
REMARK SMILES IDX 6 1 7 2 8 3 5 5 2 6 3 7 24 8 4 9 23 10 1 11 25 12 26 14
REMARK SMILES IDX 27 15 37 16 28 17 30 18 29 19 31 20 32 21 36 22 33 23 35 24
REMARK SMILES IDX 34 25 9 26 10 27 22 28 11 29 21 30 12 31 13 32 14 33 15 34
REMARK SMILES IDX 20 35 16 36 19 37 17 38 18 39
REMARK H PARENT 6 4 25 13
ROOT
ATOM      1  N   UNL     1      -7.122   1.693 -16.136  1.00  0.00    -0.322 N 
ATOM      2  C   UNL     1      -6.201   1.450 -15.134  1.00  0.00    +0.255 C 
ATOM      3  O   UNL     1      -5.718   2.270 -14.362  1.00  0.00    -0.269 OA
ATOM      4  H   UNL     1      -7.524   0.887 -16.598  1.00  0.00    +0.170 HD
ENDROOT
BRANCH   1   5
ATOM      5  C   UNL     1      -7.643   2.940 -16.541  1.00  0.00    +0.043 A 
ATOM      6  C   UNL     1      -8.846   5.386 -17.248  1.00  0.00    -0.027 A 
ATOM      7  C   UNL     1      -7.612   4.998 -17.798  1.00  0.00    +0.008 A 
ATOM      8  C   UNL     1      -9.499   4.543 -16.320  1.00  0.00    +0.046 A 
ATOM      9  C   UNL     1      -7.018   3.785 -17.448  1.00  0.00    +0.026 A 
ATOM     10  C   UNL     1      -8.877   3.327 -15.993  1.00  0.00    +0.052 A 
ATOM     11  C   UNL     1      -9.432   6.706 -17.674  1.00  0.00    +0.046 C 
BRANCH   8  12
ATOM     12  N   UNL     1     -10.736   4.925 -15.779  1.00  0.00    -0.324 N 
ATOM     13  H   UNL     1     -11.067   5.851 -16.000  1.00  0.00    +0.170 HD
BRANCH  12  14
ATOM     14  C   UNL     1     -11.661   4.327 -14.929  1.00  0.00    +0.227 A 
ATOM     15  N   UNL     1     -12.863   4.862 -14.684  1.00  0.00    -0.221 NA
ATOM     16  N   UNL     1     -11.245   3.177 -14.371  1.00  0.00    -0.213 NA
ATOM     17  C   UNL     1     -13.672   4.200 -13.841  1.00  0.00    +0.117 A 
ATOM     18  C   UNL     1     -12.072   2.532 -13.517  1.00  0.00    +0.077 A 
ATOM     19  C   UNL     1     -13.327   3.024 -13.224  1.00  0.00    +0.049 A 
BRANCH  18  20
ATOM     20  C   UNL     1     -11.543   1.282 -12.942  1.00  0.00    +0.019 A 
ATOM     21  C   UNL     1     -11.716   0.922 -11.597  1.00  0.00    +0.013 A 
ATOM     22  C   UNL     1     -10.820   0.375 -13.720  1.00  0.00    +0.121 A 
ATOM     23  C   UNL     1     -11.195  -0.277 -11.108  1.00  0.00    +0.021 A 
ATOM     24  N   UNL     1     -10.305  -0.802 -13.278  1.00  0.00    -0.264 NA
ATOM     25  C   UNL     1     -10.505  -1.098 -11.980  1.00  0.00    +0.111 A 
ENDBRANCH  18  20
ENDBRANCH  12  14
ENDBRANCH   8  12
ENDBRANCH   1   5
BRANCH   2  26
ATOM     26  C   UNL     1      -5.810   0.019 -14.977  1.00  0.00    +0.040 A 
ATOM     27  C   UNL     1      -5.032  -0.419 -13.899  1.00  0.00    +0.014 A 
ATOM     28  C   UNL     1      -6.262  -0.904 -15.926  1.00  0.00    +0.014 A 
ATOM     29  C   UNL     1      -4.690  -1.769 -13.790  1.00  0.00    +0.006 A 
ATOM     30  C   UNL     1      -5.919  -2.254 -15.814  1.00  0.00    +0.006 A 
ATOM     31  C   UNL     1      -5.133  -2.701 -14.742  1.00  0.00    -0.034 A 
BRANCH  31  32
ATOM     32  C   UNL     1      -4.747  -4.163 -14.632  1.00  0.00    +0.120 C 
BRANCH  32  33
ATOM     33  N   UNL     1      -4.867  -4.896 -15.901  1.00  0.00    -0.297 NA
ATOM     34  C   UNL     1      -5.570  -6.179 -15.681  1.00  0.00    +0.100 C 
ATOM     35  C   UNL     1      -3.561  -5.110 -16.565  1.00  0.00    +0.100 C 
ATOM     36  C   UNL     1      -5.265  -7.217 -16.779  1.00  0.00    +0.099 C 
ATOM     37  C   UNL     1      -2.961  -6.522 -16.372  1.00  0.00    +0.099 C 
ATOM     38  N   UNL     1      -3.847  -7.632 -16.776  1.00  0.00    -0.304 NA
ATOM     39  C   UNL     1      -3.473  -8.183 -18.075  1.00  0.00    +0.105 C 
ENDBRANCH  32  33
ENDBRANCH  31  32
ENDBRANCH   2  26
TORSDOF 7
ENDMDL
MODEL 8
REMARK VINA RESULT:    -9.423      2.024      2.752
REMARK INTER + INTRA:         -14.200
REMARK INTER:                 -13.740
REMARK INTRA:                  -0.460
REMARK UNBOUND:                -0.922
REMARK SMILES Cc1ccc(NC(=O)c2ccc(CN3CCN(C)CC3)cc2)cc1Nc1nccc(-c2cccnc2)n1
REMARK SMILES IDX 6 1 7 2 8 3 5 5 2 6 3 7 24 8 4 9 23 10 1 11 25 12 26 14
REMARK SMILES IDX 27 15 37 16 28 17 30 18 29 19 31 20 32 21 36 22 33 23 35 24
REMARK SMILES IDX 34 25 9 26 10 27 22 28 11 29 21 30 12 31 13 32 14 33 15 34
REMARK SMILES IDX 20 35 16 36 19 37 17 38 18 39
REMARK H PARENT 6 4 25 13
ROOT
ATOM      1  N   UNL     1     -10.831   2.704 -13.917  1.00  0.00    -0.322 N 
ATOM      2  C   UNL     1     -12.141   2.849 -13.499  1.00  0.00    +0.255 C 
ATOM      3  O   UNL     1     -13.008   3.544 -14.016  1.00  0.00    -0.269 OA
ATOM      4  H   UNL     1     -10.279   1.988 -13.462  1.00  0.00    +0.170 HD
ENDROOT
BRANCH   1   5
ATOM      5  C   UNL     1     -10.186   3.381 -14.974  1.00  0.00    +0.043 A 
ATOM      6  C   UNL     1      -8.742   4.618 -17.051  1.00  0.00    -0.027 A 
ATOM      7  C   UNL     1      -9.999   5.103 -16.651  1.00  0.00    +0.008 A 
ATOM      8  C   UNL     1      -8.187   3.488 -16.408  1.00  0.00    +0.046 A 
ATOM      9  C   UNL     1     -10.713   4.491 -15.621  1.00  0.00    +0.026 A 
ATOM     10  C   UNL     1      -8.928   2.897 -15.371  1.00  0.00    +0.052 A 
ATOM     11  C   UNL     1      -8.024   5.332 -18.166  1.00  0.00    +0.046 C 
BRANCH   8  12
ATOM     12  N   UNL     1      -6.927   3.010 -16.798  1.00  0.00    -0.324 N 
ATOM     13  H   UNL     1      -6.253   3.693 -17.109  1.00  0.00    +0.170 HD
BRANCH  12  14
ATOM     14  C   UNL     1      -6.348   1.750 -16.911  1.00  0.00    +0.227 A 
ATOM     15  N   UNL     1      -6.947   0.641 -16.460  1.00  0.00    -0.221 NA
ATOM     16  N   UNL     1      -5.140   1.740 -17.499  1.00  0.00    -0.213 NA
ATOM     17  C   UNL     1      -6.293  -0.521 -16.617  1.00  0.00    +0.117 A 
ATOM     18  C   UNL     1      -4.495   0.560 -17.639  1.00  0.00    +0.077 A 
ATOM     19  C   UNL     1      -5.056  -0.622 -17.202  1.00  0.00    +0.049 A 
BRANCH  18  20
ATOM     20  C   UNL     1      -3.174   0.632 -18.288  1.00  0.00    +0.019 A 
ATOM     21  C   UNL     1      -2.965   0.326 -19.642  1.00  0.00    +0.013 A 
ATOM     22  C   UNL     1      -2.034   1.008 -17.573  1.00  0.00    +0.121 A 
ATOM     23  C   UNL     1      -1.690   0.415 -20.204  1.00  0.00    +0.021 A 
ATOM     24  N   UNL     1      -0.782   1.110 -18.090  1.00  0.00    -0.264 NA
ATOM     25  C   UNL     1      -0.641   0.810 -19.395  1.00  0.00    +0.111 A 
ENDBRANCH  18  20
ENDBRANCH  12  14
ENDBRANCH   8  12
ENDBRANCH   1   5
BRANCH   2  26
ATOM     26  C   UNL     1     -12.515   2.023 -12.315  1.00  0.00    +0.040 A 
ATOM     27  C   UNL     1     -13.772   2.130 -11.708  1.00  0.00    +0.014 A 
ATOM     28  C   UNL     1     -11.585   1.100 -11.824  1.00  0.00    +0.014 A 
ATOM     29  C   UNL     1     -14.081   1.336 -10.602  1.00  0.00    +0.006 A 
ATOM     30  C   UNL     1     -11.897   0.306 -10.718  1.00  0.00    +0.006 A 
ATOM     31  C   UNL     1     -13.151   0.412 -10.098  1.00  0.00    -0.034 A 
BRANCH  31  32
ATOM     32  C   UNL     1     -13.482  -0.438  -8.887  1.00  0.00    +0.120 C 
BRANCH  32  33
ATOM     33  N   UNL     1     -12.976  -1.815  -8.985  1.00  0.00    -0.297 NA
ATOM     34  C   UNL     1     -13.905  -2.641  -9.786  1.00  0.00    +0.100 C 
ATOM     35  C   UNL     1     -12.724  -2.429  -7.661  1.00  0.00    +0.100 C 
ATOM     36  C   UNL     1     -13.764  -4.147  -9.492  1.00  0.00    +0.099 C 
ATOM     37  C   UNL     1     -13.831  -3.391  -7.172  1.00  0.00    +0.099 C 
ATOM     38  N   UNL     1     -14.159  -4.484  -8.108  1.00  0.00    -0.304 NA
ATOM     39  C   UNL     1     -13.558  -5.750  -7.700  1.00  0.00    +0.105 C 
ENDBRANCH  32  33
ENDBRANCH  31  32
ENDBRANCH   2  26
TORSDOF 7
ENDMDL
MODEL 9
REMARK VINA RESULT:    -9.240      1.479      2.164
REMARK INTER + INTRA:         -13.943
REMARK INTER:                 -13.265
REMARK INTRA:                  -0.678
REMARK UNBOUND:                -0.922
REMARK SMILES Cc1ccc(NC(=O)c2ccc(CN3CCN(C)CC3)cc2)cc1Nc1nccc(-c2cccnc2)n1
REMARK SMILES IDX 6 1 7 2 8 3 5 5 2 6 3 7 24 8 4 9 23 10 1 11 25 12 26 14
REMARK SMILES IDX 27 15 37 16 28 17 30 18 29 19 31 20 32 21 36 22 33 23 35 24
REMARK SMILES IDX 34 25 9 26 10 27 22 28 11 29 21 30 12 31 13 32 14 33 15 34
REMARK SMILES IDX 20 35 16 36 19 37 17 38 18 39
REMARK H PARENT 6 4 25 13
ROOT
ATOM      1  N   UNL     1     -10.792   2.744 -14.208  1.00  0.00    -0.322 N 
ATOM      2  C   UNL     1     -11.951   3.159 -13.578  1.00  0.00    +0.255 C 
ATOM      3  O   UNL     1     -12.640   4.130 -13.867  1.00  0.00    -0.269 OA
ATOM      4  H   UNL     1     -10.415   1.846 -13.935  1.00  0.00    +0.170 HD
ENDROOT
BRANCH   1   5
ATOM      5  C   UNL     1     -10.109   3.388 -15.262  1.00  0.00    +0.043 A 
ATOM      6  C   UNL     1      -8.596   4.550 -17.333  1.00  0.00    -0.027 A 
ATOM      7  C   UNL     1      -9.827   5.100 -16.936  1.00  0.00    +0.008 A 
ATOM      8  C   UNL     1      -8.103   3.392 -16.690  1.00  0.00    +0.046 A 
ATOM      9  C   UNL     1     -10.575   4.525 -15.910  1.00  0.00    +0.026 A 
ATOM     10  C   UNL     1      -8.877   2.840 -15.656  1.00  0.00    +0.052 A 
ATOM     11  C   UNL     1      -7.838   5.227 -18.445  1.00  0.00    +0.046 C 
BRANCH   8  12
ATOM     12  N   UNL     1      -6.869   2.849 -17.077  1.00  0.00    -0.324 N 
ATOM     13  H   UNL     1      -6.238   3.454 -17.580  1.00  0.00    +0.170 HD
BRANCH  12  14
ATOM     14  C   UNL     1      -6.272   1.596 -16.972  1.00  0.00    +0.227 A 
ATOM     15  N   UNL     1      -5.503   1.083 -17.940  1.00  0.00    -0.221 NA
ATOM     16  N   UNL     1      -6.539   0.944 -15.827  1.00  0.00    -0.213 NA
ATOM     17  C   UNL     1      -4.984  -0.138 -17.733  1.00  0.00    +0.117 A 
ATOM     18  C   UNL     1      -6.013  -0.288 -15.643  1.00  0.00    +0.077 A 
ATOM     19  C   UNL     1      -5.207  -0.875 -16.597  1.00  0.00    +0.049 A 
BRANCH  18  20
ATOM     20  C   UNL     1      -6.355  -0.941 -14.367  1.00  0.00    +0.019 A 
ATOM     21  C   UNL     1      -7.049  -0.293 -13.334  1.00  0.00    +0.013 A 
ATOM     22  C   UNL     1      -5.992  -2.265 -14.110  1.00  0.00    +0.121 A 
ATOM     23  C   UNL     1      -7.348  -0.963 -12.146  1.00  0.00    +0.021 A 
ATOM     24  N   UNL     1      -6.271  -2.948 -12.969  1.00  0.00    -0.264 NA
ATOM     25  C   UNL     1      -6.943  -2.278 -12.014  1.00  0.00    +0.111 A 
ENDBRANCH  18  20
ENDBRANCH  12  14
ENDBRANCH   8  12
ENDBRANCH   1   5
BRANCH   2  26
ATOM     26  C   UNL     1     -12.402   2.282 -12.460  1.00  0.00    +0.040 A 
ATOM     27  C   UNL     1     -13.706   2.345 -11.954  1.00  0.00    +0.014 A 
ATOM     28  C   UNL     1     -11.497   1.358 -11.928  1.00  0.00    +0.014 A 
ATOM     29  C   UNL     1     -14.088   1.504 -10.906  1.00  0.00    +0.006 A 
ATOM     30  C   UNL     1     -11.882   0.517 -10.881  1.00  0.00    +0.006 A 
ATOM     31  C   UNL     1     -13.183   0.578 -10.362  1.00  0.00    -0.034 A 
BRANCH  31  32
ATOM     32  C   UNL     1     -13.595  -0.323  -9.214  1.00  0.00    +0.120 C 
BRANCH  32  33
ATOM     33  N   UNL     1     -13.024  -1.676  -9.301  1.00  0.00    -0.297 NA
ATOM     34  C   UNL     1     -14.040  -2.622  -9.811  1.00  0.00    +0.100 C 
ATOM     35  C   UNL     1     -12.459  -2.143  -8.015  1.00  0.00    +0.100 C 
ATOM     36  C   UNL     1     -13.735  -4.083  -9.427  1.00  0.00    +0.099 C 
ATOM     37  C   UNL     1     -13.368  -3.108  -7.220  1.00  0.00    +0.099 C 
ATOM     38  N   UNL     1     -13.807  -4.303  -7.968  1.00  0.00    -0.304 NA
ATOM     39  C   UNL     1     -13.046  -5.491  -7.592  1.00  0.00    +0.105 C 
ENDBRANCH  32  33
ENDBRANCH  31  32
ENDBRANCH   2  26
TORSDOF 7
ENDMDL
MODEL 10
REMARK VINA RESULT:    -9.020      2.201      3.100
REMARK INTER + INTRA:         -13.633
REMARK INTER:                 -12.775
REMARK INTRA:                  -0.857
REMARK UNBOUND:                -0.922
REMARK SMILES Cc1ccc(NC(=O)c2ccc(CN3CCN(C)CC3)cc2)cc1Nc1nccc(-c2cccnc2)n1
REMARK SMILES IDX 6 1 7 2 8 3 5 5 2 6 3 7 24 8 4 9 23 10 1 11 25 12 26 14
REMARK SMILES IDX 27 15 37 16 28 17 30 18 29 19 31 20 32 21 36 22 33 23 35 24
REMARK SMILES IDX 34 25 9 26 10 27 22 28 11 29 21 30 12 31 13 32 14 33 15 34
REMARK SMILES IDX 20 35 16 36 19 37 17 38 18 39
REMARK H PARENT 6 4 25 13
ROOT
ATOM      1  N   UNL     1     -10.743   1.891 -13.638  1.00  0.00    -0.322 N 
ATOM      2  C   UNL     1     -11.912   2.397 -13.098  1.00  0.00    +0.255 C 
ATOM      3  O   UNL     1     -12.567   3.345 -13.516  1.00  0.00    -0.269 OA
ATOM      4  H   UNL     1     -10.398   1.021 -13.254  1.00  0.00    +0.170 HD
ENDROOT
BRANCH   1   5
ATOM      5  C   UNL     1     -10.010   2.400 -14.731  1.00  0.00    +0.043 A 
ATOM      6  C   UNL     1      -8.461   3.240 -16.927  1.00  0.00    -0.027 A 
ATOM      7  C   UNL     1      -9.267   4.146 -16.218  1.00  0.00    +0.008 A 
ATOM      8  C   UNL     1      -8.424   1.880 -16.541  1.00  0.00    +0.046 A 
ATOM      9  C   UNL     1     -10.033   3.730 -15.130  1.00  0.00    +0.026 A 
ATOM     10  C   UNL     1      -9.202   1.493 -15.437  1.00  0.00    +0.052 A 
ATOM     11  C   UNL     1      -7.655   3.759 -18.089  1.00  0.00    +0.046 C 
BRANCH   8  12
ATOM     12  N   UNL     1      -7.611   0.976 -17.241  1.00  0.00    -0.324 N 
ATOM     13  H   UNL     1      -7.990   0.576 -18.085  1.00  0.00    +0.170 HD
BRANCH  12  14
ATOM     14  C   UNL     1      -6.350   0.426 -17.030  1.00  0.00    +0.227 A 
ATOM     15  N   UNL     1      -5.230   1.002 -17.483  1.00  0.00    -0.221 NA
ATOM     16  N   UNL     1      -6.352  -0.731 -16.346  1.00  0.00    -0.213 NA
ATOM     17  C   UNL     1      -4.068   0.378 -17.227  1.00  0.00    +0.117 A 
ATOM     18  C   UNL     1      -5.172  -1.347 -16.106  1.00  0.00    +0.077 A 
ATOM     19  C   UNL     1      -3.979  -0.806 -16.539  1.00  0.00    +0.049 A 
BRANCH  18  20
ATOM     20  C   UNL     1      -5.256  -2.612 -15.356  1.00  0.00    +0.019 A 
ATOM     21  C   UNL     1      -4.516  -3.756 -15.691  1.00  0.00    +0.013 A 
ATOM     22  C   UNL     1      -6.102  -2.744 -14.252  1.00  0.00    +0.121 A 
ATOM     23  C   UNL     1      -4.634  -4.927 -14.940  1.00  0.00    +0.021 A 
ATOM     24  N   UNL     1      -6.237  -3.866 -13.496  1.00  0.00    -0.264 NA
ATOM     25  C   UNL     1      -5.499  -4.931 -13.861  1.00  0.00    +0.111 A 
ENDBRANCH  18  20
ENDBRANCH  12  14
ENDBRANCH   8  12
ENDBRANCH   1   5
BRANCH   2  26
ATOM     26  C   UNL     1     -12.422   1.659 -11.907  1.00  0.00    +0.040 A 
ATOM     27  C   UNL     1     -13.732   1.824 -11.443  1.00  0.00    +0.014 A 
ATOM     28  C   UNL     1     -11.566   0.761 -11.261  1.00  0.00    +0.014 A 
ATOM     29  C   UNL     1     -14.170   1.111 -10.325  1.00  0.00    +0.006 A 
ATOM     30  C   UNL     1     -12.007   0.048 -10.143  1.00  0.00    +0.006 A 
ATOM     31  C   UNL     1     -13.315   0.213  -9.666  1.00  0.00    -0.034 A 
BRANCH  31  32
ATOM     32  C   UNL     1     -13.786  -0.548  -8.442  1.00  0.00    +0.120 C 
BRANCH  32  33
ATOM     33  N   UNL     1     -15.250  -0.665  -8.355  1.00  0.00    -0.297 NA
ATOM     34  C   UNL     1     -15.754   0.119  -7.207  1.00  0.00    +0.100 C 
ATOM     35  C   UNL     1     -15.709  -2.070  -8.285  1.00  0.00    +0.100 C 
ATOM     36  C   UNL     1     -17.134  -0.366  -6.719  1.00  0.00    +0.099 C 
ATOM     37  C   UNL     1     -16.076  -2.561  -6.866  1.00  0.00    +0.099 C 
ATOM     38  N   UNL     1     -17.080  -1.735  -6.165  1.00  0.00    -0.304 NA
ATOM     39  C   UNL     1     -18.404  -2.348  -6.190  1.00  0.00    +0.105 C 
ENDBRANCH  32  33
ENDBRANCH  31  32
ENDBRANCH   2  26
TORSDOF 7
ENDMDL
