MODEL 1
REMARK VINA RESULT:   -10.095      0.000      0.000
REMARK INTER + INTRA:         -14.339
REMARK INTER:                 -14.226
REMARK INTRA:                  -0.113
REMARK UNBOUND:                -0.113
REMARK SMILES CCN(CC)CCNC(=O)c1c(C)[nH]c(/C=C2\C(=O)Nc3ccc(F)cc32)c1C
REMARK SMILES IDX 7 1 6 2 3 3 2 4 1 5 4 6 5 7 8 8 9 9 10 10 11 12 12 13 28 14
REMARK SMILES IDX 14 15 15 16 13 17 29 18 16 20 17 21 18 22 27 23 19 24 20 25
REMARK SMILES IDX 26 26 21 27 24 28 22 29 23 30 25 32
REMARK H PARENT 8 11 14 19 20 31
ROOT
ATOM      1  C   UNL     1     -38.112 157.417   3.294  1.00  0.00    +0.131 C 
ENDROOT
BRANCH   1   2
ATOM      2  C   UNL     1     -36.876 157.888   4.088  1.00  0.00    +0.105 C 
BRANCH   2   3
ATOM      3  N   UNL     1     -35.764 156.924   4.231  1.00  0.00    -0.302 NA
BRANCH   3   4
ATOM      4  C   UNL     1     -34.504 157.545   4.673  1.00  0.00    +0.081 C 
ATOM      5  C   UNL     1     -33.315 156.588   4.695  1.00  0.00    +0.021 C 
ENDBRANCH   3   4
BRANCH   3   6
ATOM      6  C   UNL     1     -36.148 155.787   5.084  1.00  0.00    +0.081 C 
ATOM      7  C   UNL     1     -36.606 156.217   6.474  1.00  0.00    +0.021 C 
ENDBRANCH   3   6
ENDBRANCH   2   3
ENDBRANCH   1   2
BRANCH   1   8
ATOM      8  N   UNL     1     -38.573 158.421   2.356  1.00  0.00    -0.351 N 
ATOM      9  C   UNL     1     -39.903 158.548   2.026  1.00  0.00    +0.253 C 
ATOM     10  O   UNL     1     -40.778 157.829   2.497  1.00  0.00    -0.269 OA
ATOM     11  H   UNL     1     -37.896 158.932   1.807  1.00  0.00    +0.163 HD
BRANCH   9  12
ATOM     12  C   UNL     1     -40.173 159.581   1.024  1.00  0.00    +0.063 A 
ATOM     13  C   UNL     1     -41.413 160.171   0.834  1.00  0.00    +0.025 A 
ATOM     14  C   UNL     1     -39.277 160.208   0.083  1.00  0.00    -0.013 A 
ATOM     15  N   UNL     1     -41.305 161.068  -0.197  1.00  0.00    -0.358 N 
ATOM     16  C   UNL     1     -40.022 161.104  -0.683  1.00  0.00    +0.043 A 
ATOM     17  C   UNL     1     -42.706 159.957   1.536  1.00  0.00    +0.065 C 
ATOM     18  C   UNL     1     -37.807 159.965  -0.032  1.00  0.00    +0.047 C 
ATOM     19  H   UNL     1     -42.079 161.629  -0.541  1.00  0.00    +0.166 HD
BRANCH  16  20
ATOM     20  C   UNL     1     -39.637 161.955  -1.760  1.00  0.00    +0.041 C 
ATOM     21  C   UNL     1     -39.211 161.642  -2.994  1.00  0.00    +0.051 C 
ATOM     22  C   UNL     1     -38.991 160.304  -3.663  1.00  0.00    +0.256 C 
ATOM     23  C   UNL     1     -38.851 162.662  -4.000  1.00  0.00    +0.014 A 
ATOM     24  O   UNL     1     -39.159 159.192  -3.201  1.00  0.00    -0.269 OA
ATOM     25  N   UNL     1     -38.545 160.596  -4.940  1.00  0.00    -0.321 N 
ATOM     26  C   UNL     1     -38.841 164.046  -3.992  1.00  0.00    +0.050 A 
ATOM     27  C   UNL     1     -38.459 161.966  -5.150  1.00  0.00    +0.049 A 
ATOM     28  C   UNL     1     -38.431 164.699  -5.155  1.00  0.00    +0.123 A 
ATOM     29  C   UNL     1     -38.051 162.599  -6.308  1.00  0.00    +0.030 A 
ATOM     30  C   UNL     1     -38.039 163.994  -6.303  1.00  0.00    +0.041 A 
ATOM     31  H   UNL     1     -38.319 159.879  -5.613  1.00  0.00    +0.170 HD
ATOM     32  F   UNL     1     -38.410 166.038  -5.177  1.00  0.00    -0.207 F 
ENDBRANCH  16  20
ENDBRANCH   9  12
ENDBRANCH   1   8
TORSDOF 7
ENDMDL
MODEL 2
REMARK VINA RESULT:    -9.810      1.628      1.945
REMARK INTER + INTRA:         -13.938
REMARK INTER:                 -13.763
REMARK INTRA:                  -0.175
REMARK UNBOUND:                -0.113
REMARK SMILES CCN(CC)CCNC(=O)c1c(C)[nH]c(/C=C2\C(=O)Nc3ccc(F)cc32)c1C
REMARK SMILES IDX 7 1 6 2 3 3 2 4 1 5 4 6 5 7 8 8 9 9 10 10 11 12 12 13 28 14
REMARK SMILES IDX 14 15 15 16 13 17 29 18 16 20 17 21 18 22 27 23 19 24 20 25
REMARK SMILES IDX 26 26 21 27 24 28 22 29 23 30 25 32
REMARK H PARENT 8 11 14 19 20 31
ROOT
ATOM      1  C   UNL     1     -38.188 157.213   3.097  1.00  0.00    +0.131 C 
ENDROOT
BRANCH   1   2
ATOM      2  C   UNL     1     -37.064 157.802   3.973  1.00  0.00    +0.105 C 
BRANCH   2   3
ATOM      3  N   UNL     1     -35.856 156.970   4.165  1.00  0.00    -0.302 NA
BRANCH   3   4
ATOM      4  C   UNL     1     -34.727 157.705   4.758  1.00  0.00    +0.081 C 
ATOM      5  C   UNL     1     -33.390 156.976   4.656  1.00  0.00    +0.021 C 
ENDBRANCH   3   4
BRANCH   3   6
ATOM      6  C   UNL     1     -36.167 155.739   4.909  1.00  0.00    +0.081 C 
ATOM      7  C   UNL     1     -36.542 156.006   6.364  1.00  0.00    +0.021 C 
ENDBRANCH   3   6
ENDBRANCH   2   3
ENDBRANCH   1   2
BRANCH   1   8
ATOM      8  N   UNL     1     -38.572 158.109   2.025  1.00  0.00    -0.351 N 
ATOM      9  C   UNL     1     -39.887 158.444   1.796  1.00  0.00    +0.253 C 
ATOM     10  O   UNL     1     -40.812 158.010   2.475  1.00  0.00    -0.269 OA
ATOM     11  H   UNL     1     -37.887 158.368   1.329  1.00  0.00    +0.163 HD
BRANCH   9  12
ATOM     12  C   UNL     1     -40.088 159.319   0.639  1.00  0.00    +0.063 A 
ATOM     13  C   UNL     1     -41.191 160.140   0.471  1.00  0.00    +0.025 A 
ATOM     14  C   UNL     1     -39.236 159.544  -0.504  1.00  0.00    -0.013 A 
ATOM     15  N   UNL     1     -41.060 160.792  -0.728  1.00  0.00    -0.358 N 
ATOM     16  C   UNL     1     -39.888 160.440  -1.350  1.00  0.00    +0.043 A 
ATOM     17  C   UNL     1     -42.377 160.360   1.341  1.00  0.00    +0.065 C 
ATOM     18  C   UNL     1     -37.885 158.948  -0.728  1.00  0.00    +0.047 C 
ATOM     19  H   UNL     1     -41.744 161.448  -1.092  1.00  0.00    +0.166 HD
BRANCH  16  20
ATOM     20  C   UNL     1     -39.505 160.975  -2.615  1.00  0.00    +0.041 C 
ATOM     21  C   UNL     1     -39.091 162.212  -2.936  1.00  0.00    +0.051 C 
ATOM     22  C   UNL     1     -38.893 163.448  -2.089  1.00  0.00    +0.256 C 
ATOM     23  C   UNL     1     -38.729 162.602  -4.314  1.00  0.00    +0.014 A 
ATOM     24  O   UNL     1     -39.075 163.583  -0.894  1.00  0.00    -0.269 OA
ATOM     25  N   UNL     1     -38.452 164.429  -2.961  1.00  0.00    -0.321 N 
ATOM     26  C   UNL     1     -38.703 161.924  -5.521  1.00  0.00    +0.050 A 
ATOM     27  C   UNL     1     -38.352 163.949  -4.259  1.00  0.00    +0.049 A 
ATOM     28  C   UNL     1     -38.293 162.629  -6.652  1.00  0.00    +0.123 A 
ATOM     29  C   UNL     1     -37.944 164.660  -5.372  1.00  0.00    +0.030 A 
ATOM     30  C   UNL     1     -37.917 163.980  -6.590  1.00  0.00    +0.041 A 
ATOM     31  H   UNL     1     -38.236 165.367  -2.658  1.00  0.00    +0.170 HD
ATOM     32  F   UNL     1     -38.258 162.001  -7.835  1.00  0.00    -0.207 F 
ENDBRANCH  16  20
ENDBRANCH   9  12
ENDBRANCH   1   8
TORSDOF 7
ENDMDL
MODEL 3
REMARK VINA RESULT:    -9.606      3.766     10.533
REMARK INTER + INTRA:         -13.650
REMARK INTER:                 -12.555
REMARK INTRA:                  -1.095
REMARK UNBOUND:                -0.113
REMARK SMILES CCN(CC)CCNC(=O)c1c(C)[nH]c(/C=C2\C(=O)Nc3ccc(F)cc32)c1C
REMARK SMILES IDX 7 1 6 2 3 3 2 4 1 5 4 6 5 7 8 8 9 9 10 10 11 12 12 13 28 14
REMARK SMILES IDX 14 15 15 16 13 17 29 18 16 20 17 21 18 22 27 23 19 24 20 25
REMARK SMILES IDX 26 26 21 27 24 28 22 29 23 30 25 32
REMARK H PARENT 8 11 14 19 20 31
ROOT
ATOM      1  C   UNL     1     -38.192 165.674  -7.850  1.00  0.00    +0.131 C 
ENDROOT
BRANCH   1   2
ATOM      2  C   UNL     1     -37.505 165.080  -9.097  1.00  0.00    +0.105 C 
BRANCH   2   3
ATOM      3  N   UNL     1     -38.184 165.277 -10.395  1.00  0.00    -0.302 NA
BRANCH   3   4
ATOM      4  C   UNL     1     -37.556 166.312 -11.234  1.00  0.00    +0.081 C 
ATOM      5  C   UNL     1     -36.087 166.567 -10.908  1.00  0.00    +0.021 C 
ENDBRANCH   3   4
BRANCH   3   6
ATOM      6  C   UNL     1     -38.342 164.003 -11.116  1.00  0.00    +0.081 C 
ATOM      7  C   UNL     1     -38.482 162.807 -10.179  1.00  0.00    +0.021 C 
ENDBRANCH   3   6
ENDBRANCH   2   3
ENDBRANCH   1   2
BRANCH   1   8
ATOM      8  N   UNL     1     -38.604 164.648  -6.913  1.00  0.00    -0.351 N 
ATOM      9  C   UNL     1     -37.817 164.285  -5.843  1.00  0.00    +0.253 C 
ATOM     10  O   UNL     1     -36.727 164.798  -5.615  1.00  0.00    -0.269 OA
ATOM     11  H   UNL     1     -39.403 164.070  -7.132  1.00  0.00    +0.163 HD
BRANCH   9  12
ATOM     12  C   UNL     1     -38.372 163.196  -5.037  1.00  0.00    +0.063 A 
ATOM     13  C   UNL     1     -38.473 161.884  -5.471  1.00  0.00    +0.025 A 
ATOM     14  C   UNL     1     -38.882 163.217  -3.687  1.00  0.00    -0.013 A 
ATOM     15  N   UNL     1     -39.059 161.148  -4.474  1.00  0.00    -0.358 N 
ATOM     16  C   UNL     1     -39.332 161.934  -3.382  1.00  0.00    +0.043 A 
ATOM     17  C   UNL     1     -38.073 161.256  -6.758  1.00  0.00    +0.065 C 
ATOM     18  C   UNL     1     -38.898 164.395  -2.768  1.00  0.00    +0.047 C 
ATOM     19  H   UNL     1     -39.256 160.154  -4.547  1.00  0.00    +0.166 HD
BRANCH  16  20
ATOM     20  C   UNL     1     -39.944 161.415  -2.203  1.00  0.00    +0.041 C 
ATOM     21  C   UNL     1     -39.530 160.441  -1.376  1.00  0.00    +0.051 C 
ATOM     22  C   UNL     1     -38.297 159.567  -1.404  1.00  0.00    +0.256 C 
ATOM     23  C   UNL     1     -40.296 160.025  -0.183  1.00  0.00    +0.014 A 
ATOM     24  O   UNL     1     -37.390 159.565  -2.214  1.00  0.00    -0.269 OA
ATOM     25  N   UNL     1     -38.401 158.742  -0.297  1.00  0.00    -0.321 N 
ATOM     26  C   UNL     1     -41.493 160.440   0.374  1.00  0.00    +0.050 A 
ATOM     27  C   UNL     1     -39.561 158.998   0.422  1.00  0.00    +0.049 A 
ATOM     28  C   UNL     1     -41.922 159.804   1.539  1.00  0.00    +0.123 A 
ATOM     29  C   UNL     1     -39.973 158.360   1.576  1.00  0.00    +0.030 A 
ATOM     30  C   UNL     1     -41.179 158.776   2.140  1.00  0.00    +0.041 A 
ATOM     31  H   UNL     1     -37.703 158.051  -0.068  1.00  0.00    +0.170 HD
ATOM     32  F   UNL     1     -43.077 160.184   2.101  1.00  0.00    -0.207 F 
ENDBRANCH  16  20
ENDBRANCH   9  12
ENDBRANCH   1   8
TORSDOF 7
ENDMDL
MODEL 4
REMARK VINA RESULT:    -9.598      4.026     10.258
REMARK INTER + INTRA:         -13.638
REMARK INTER:                 -12.475
REMARK INTRA:                  -1.163
REMARK UNBOUND:                -0.113
REMARK SMILES CCN(CC)CCNC(=O)c1c(C)[nH]c(/C=C2\C(=O)Nc3ccc(F)cc32)c1C
REMARK SMILES IDX 7 1 6 2 3 3 2 4 1 5 4 6 5 7 8 8 9 9 10 10 11 12 12 13 28 14
REMARK SMILES IDX 14 15 15 16 13 17 29 18 16 20 17 21 18 22 27 23 19 24 20 25
REMARK SMILES IDX 26 26 21 27 24 28 22 29 23 30 25 32
REMARK H PARENT 8 11 14 19 20 31
ROOT
ATOM      1  C   UNL     1     -37.874 162.126  -9.413  1.00  0.00    +0.131 C 
ENDROOT
BRANCH   1   2
ATOM      2  C   UNL     1     -38.039 163.404 -10.261  1.00  0.00    +0.105 C 
BRANCH   2   3
ATOM      3  N   UNL     1     -37.077 164.500 -10.017  1.00  0.00    -0.302 NA
BRANCH   3   4
ATOM      4  C   UNL     1     -36.087 164.661 -11.095  1.00  0.00    +0.081 C 
ATOM      5  C   UNL     1     -34.876 163.741 -10.968  1.00  0.00    +0.021 C 
ENDBRANCH   3   4
BRANCH   3   6
ATOM      6  C   UNL     1     -37.770 165.762  -9.710  1.00  0.00    +0.081 C 
ATOM      7  C   UNL     1     -38.214 165.854  -8.253  1.00  0.00    +0.021 C 
ENDBRANCH   3   6
ENDBRANCH   2   3
ENDBRANCH   1   2
BRANCH   1   8
ATOM      8  N   UNL     1     -38.259 162.333  -8.031  1.00  0.00    -0.351 N 
ATOM      9  C   UNL     1     -37.357 162.197  -7.000  1.00  0.00    +0.253 C 
ATOM     10  O   UNL     1     -36.183 161.893  -7.179  1.00  0.00    -0.269 OA
ATOM     11  H   UNL     1     -39.238 162.419  -7.799  1.00  0.00    +0.163 HD
BRANCH   9  12
ATOM     12  C   UNL     1     -37.938 162.393  -5.670  1.00  0.00    +0.063 A 
ATOM     13  C   UNL     1     -37.718 163.515  -4.887  1.00  0.00    +0.025 A 
ATOM     14  C   UNL     1     -38.835 161.545  -4.923  1.00  0.00    -0.013 A 
ATOM     15  N   UNL     1     -38.391 163.349  -3.705  1.00  0.00    -0.358 N 
ATOM     16  C   UNL     1     -39.069 162.155  -3.691  1.00  0.00    +0.043 A 
ATOM     17  C   UNL     1     -36.913 164.737  -5.149  1.00  0.00    +0.065 C 
ATOM     18  C   UNL     1     -39.431 160.259  -5.394  1.00  0.00    +0.047 C 
ATOM     19  H   UNL     1     -38.384 164.029  -2.950  1.00  0.00    +0.166 HD
BRANCH  16  20
ATOM     20  C   UNL     1     -39.852 161.735  -2.576  1.00  0.00    +0.041 C 
ATOM     21  C   UNL     1     -39.632 160.747  -1.693  1.00  0.00    +0.051 C 
ATOM     22  C   UNL     1     -38.502 159.750  -1.575  1.00  0.00    +0.256 C 
ATOM     23  C   UNL     1     -40.558 160.445  -0.582  1.00  0.00    +0.014 A 
ATOM     24  O   UNL     1     -37.520 159.633  -2.283  1.00  0.00    -0.269 OA
ATOM     25  N   UNL     1     -38.807 158.972  -0.472  1.00  0.00    -0.321 N 
ATOM     26  C   UNL     1     -41.756 160.997  -0.164  1.00  0.00    +0.050 A 
ATOM     27  C   UNL     1     -40.002 159.366   0.115  1.00  0.00    +0.049 A 
ATOM     28  C   UNL     1     -42.369 160.441   0.959  1.00  0.00    +0.123 A 
ATOM     29  C   UNL     1     -40.598 158.805   1.229  1.00  0.00    +0.030 A 
ATOM     30  C   UNL     1     -41.806 159.359   1.653  1.00  0.00    +0.041 A 
ATOM     31  H   UNL     1     -38.213 158.219  -0.158  1.00  0.00    +0.170 HD
ATOM     32  F   UNL     1     -43.530 160.953   1.389  1.00  0.00    -0.207 F 
ENDBRANCH  16  20
ENDBRANCH   9  12
ENDBRANCH   1   8
TORSDOF 7
ENDMDL
MODEL 5
REMARK VINA RESULT:    -9.537      3.211      5.612
REMARK INTER + INTRA:         -13.552
REMARK INTER:                 -13.315
REMARK INTRA:                  -0.237
REMARK UNBOUND:                -0.113
REMARK SMILES CCN(CC)CCNC(=O)c1c(C)[nH]c(/C=C2\C(=O)Nc3ccc(F)cc32)c1C
REMARK SMILES IDX 7 1 6 2 3 3 2 4 1 5 4 6 5 7 8 8 9 9 10 10 11 12 12 13 28 14
REMARK SMILES IDX 14 15 15 16 13 17 29 18 16 20 17 21 18 22 27 23 19 24 20 25
REMARK SMILES IDX 26 26 21 27 24 28 22 29 23 30 25 32
REMARK H PARENT 8 11 14 19 20 31
ROOT
ATOM      1  C   UNL     1     -40.844 160.963  -0.020  1.00  0.00    +0.131 C 
ENDROOT
BRANCH   1   2
ATOM      2  C   UNL     1     -40.678 159.479   0.366  1.00  0.00    +0.105 C 
BRANCH   2   3
ATOM      3  N   UNL     1     -39.624 159.156   1.351  1.00  0.00    -0.302 NA
BRANCH   3   4
ATOM      4  C   UNL     1     -40.113 158.371   2.497  1.00  0.00    +0.081 C 
ATOM      5  C   UNL     1     -41.632 158.371   2.646  1.00  0.00    +0.021 C 
ENDBRANCH   3   4
BRANCH   3   6
ATOM      6  C   UNL     1     -38.463 158.523   0.704  1.00  0.00    +0.081 C 
ATOM      7  C   UNL     1     -38.780 157.987  -0.688  1.00  0.00    +0.021 C 
ENDBRANCH   3   6
ENDBRANCH   2   3
ENDBRANCH   1   2
BRANCH   1   8
ATOM      8  N   UNL     1     -40.386 161.230  -1.369  1.00  0.00    -0.351 N 
ATOM      9  C   UNL     1     -39.354 162.105  -1.624  1.00  0.00    +0.253 C 
ATOM     10  O   UNL     1     -38.761 162.710  -0.738  1.00  0.00    -0.269 OA
ATOM     11  H   UNL     1     -40.934 160.900  -2.151  1.00  0.00    +0.163 HD
BRANCH   9  12
ATOM     12  C   UNL     1     -39.066 162.288  -3.047  1.00  0.00    +0.063 A 
ATOM     13  C   UNL     1     -38.903 161.246  -3.946  1.00  0.00    +0.025 A 
ATOM     14  C   UNL     1     -38.921 163.506  -3.809  1.00  0.00    -0.013 A 
ATOM     15  N   UNL     1     -38.621 161.781  -5.175  1.00  0.00    -0.358 N 
ATOM     16  C   UNL     1     -38.612 163.153  -5.121  1.00  0.00    +0.043 A 
ATOM     17  C   UNL     1     -38.980 159.774  -3.746  1.00  0.00    +0.065 C 
ATOM     18  C   UNL     1     -39.100 164.896  -3.292  1.00  0.00    +0.047 C 
ATOM     19  H   UNL     1     -38.449 161.225  -6.008  1.00  0.00    +0.166 HD
BRANCH  16  20
ATOM     20  C   UNL     1     -38.344 163.959  -6.266  1.00  0.00    +0.041 C 
ATOM     21  C   UNL     1     -38.005 163.597  -7.514  1.00  0.00    +0.051 C 
ATOM     22  C   UNL     1     -37.789 162.234  -8.132  1.00  0.00    +0.256 C 
ATOM     23  C   UNL     1     -37.761 164.575  -8.594  1.00  0.00    +0.014 A 
ATOM     24  O   UNL     1     -37.881 161.142  -7.605  1.00  0.00    -0.269 OA
ATOM     25  N   UNL     1     -37.455 162.475  -9.454  1.00  0.00    -0.321 N 
ATOM     26  C   UNL     1     -37.800 165.957  -8.654  1.00  0.00    +0.050 A 
ATOM     27  C   UNL     1     -37.435 163.833  -9.736  1.00  0.00    +0.049 A 
ATOM     28  C   UNL     1     -37.507 166.562  -9.876  1.00  0.00    +0.123 A 
ATOM     29  C   UNL     1     -37.143 164.419 -10.953  1.00  0.00    +0.030 A 
ATOM     30  C   UNL     1     -37.181 165.812 -11.016  1.00  0.00    +0.041 A 
ATOM     31  H   UNL     1     -37.257 161.731 -10.107  1.00  0.00    +0.170 HD
ATOM     32  F   UNL     1     -37.535 167.899  -9.965  1.00  0.00    -0.207 F 
ENDBRANCH  16  20
ENDBRANCH   9  12
ENDBRANCH   1   8
TORSDOF 7
ENDMDL
MODEL 6
REMARK VINA RESULT:    -9.477      3.509      5.807
REMARK INTER + INTRA:         -13.469
REMARK INTER:                 -12.741
REMARK INTRA:                  -0.727
REMARK UNBOUND:                -0.113
REMARK SMILES CCN(CC)CCNC(=O)c1c(C)[nH]c(/C=C2\C(=O)Nc3ccc(F)cc32)c1C
REMARK SMILES IDX 7 1 6 2 3 3 2 4 1 5 4 6 5 7 8 8 9 9 10 10 11 12 12 13 28 14
REMARK SMILES IDX 14 15 15 16 13 17 29 18 16 20 17 21 18 22 27 23 19 24 20 25
REMARK SMILES IDX 26 26 21 27 24 28 22 29 23 30 25 32
REMARK H PARENT 8 11 14 19 20 31
ROOT
ATOM      1  C   UNL     1     -41.341 160.626  -0.175  1.00  0.00    +0.131 C 
ENDROOT
BRANCH   1   2
ATOM      2  C   UNL     1     -40.896 159.203   0.223  1.00  0.00    +0.105 C 
BRANCH   2   3
ATOM      3  N   UNL     1     -39.799 159.094   1.208  1.00  0.00    -0.302 NA
BRANCH   3   4
ATOM      4  C   UNL     1     -40.210 158.473   2.477  1.00  0.00    +0.081 C 
ATOM      5  C   UNL     1     -41.722 158.371   2.658  1.00  0.00    +0.021 C 
ENDBRANCH   3   4
BRANCH   3   6
ATOM      6  C   UNL     1     -38.620 158.432   0.624  1.00  0.00    +0.081 C 
ATOM      7  C   UNL     1     -38.799 158.100  -0.854  1.00  0.00    +0.021 C 
ENDBRANCH   3   6
ENDBRANCH   2   3
ENDBRANCH   1   2
BRANCH   1   8
ATOM      8  N   UNL     1     -40.679 161.089  -1.378  1.00  0.00    -0.351 N 
ATOM      9  C   UNL     1     -39.503 161.802  -1.329  1.00  0.00    +0.253 C 
ATOM     10  O   UNL     1     -38.943 162.092  -0.277  1.00  0.00    -0.269 OA
ATOM     11  H   UNL     1     -41.165 161.033  -2.262  1.00  0.00    +0.163 HD
BRANCH   9  12
ATOM     12  C   UNL     1     -39.010 162.230  -2.640  1.00  0.00    +0.063 A 
ATOM     13  C   UNL     1     -38.649 163.533  -2.944  1.00  0.00    +0.025 A 
ATOM     14  C   UNL     1     -38.771 161.454  -3.833  1.00  0.00    -0.013 A 
ATOM     15  N   UNL     1     -38.262 163.573  -4.258  1.00  0.00    -0.358 N 
ATOM     16  C   UNL     1     -38.338 162.327  -4.829  1.00  0.00    +0.043 A 
ATOM     17  C   UNL     1     -38.645 164.759  -2.103  1.00  0.00    +0.065 C 
ATOM     18  C   UNL     1     -38.929 159.975  -3.968  1.00  0.00    +0.047 C 
ATOM     19  H   UNL     1     -37.958 164.419  -4.732  1.00  0.00    +0.166 HD
BRANCH  16  20
ATOM     20  C   UNL     1     -37.992 162.090  -6.192  1.00  0.00    +0.041 C 
ATOM     21  C   UNL     1     -37.965 162.938  -7.233  1.00  0.00    +0.051 C 
ATOM     22  C   UNL     1     -38.290 164.411  -7.327  1.00  0.00    +0.256 C 
ATOM     23  C   UNL     1     -37.576 162.520  -8.596  1.00  0.00    +0.014 A 
ATOM     24  O   UNL     1     -38.658 165.162  -6.444  1.00  0.00    -0.269 OA
ATOM     25  N   UNL     1     -38.085 164.753  -8.652  1.00  0.00    -0.321 N 
ATOM     26  C   UNL     1     -37.177 161.315  -9.145  1.00  0.00    +0.050 A 
ATOM     27  C   UNL     1     -37.668 163.661  -9.402  1.00  0.00    +0.049 A 
ATOM     28  C   UNL     1     -36.877 161.290 -10.507  1.00  0.00    +0.123 A 
ATOM     29  C   UNL     1     -37.375 163.651 -10.752  1.00  0.00    +0.030 A 
ATOM     30  C   UNL     1     -36.972 162.438 -11.309  1.00  0.00    +0.041 A 
ATOM     31  H   UNL     1     -38.227 165.690  -8.999  1.00  0.00    +0.170 HD
ATOM     32  F   UNL     1     -36.488 160.137 -11.069  1.00  0.00    -0.207 F 
ENDBRANCH  16  20
ENDBRANCH   9  12
ENDBRANCH   1   8
TORSDOF 7
ENDMDL
MODEL 7
REMARK VINA RESULT:    -8.504      6.202     12.848
REMARK INTER + INTRA:         -12.097
REMARK INTER:                 -11.226
REMARK INTRA:                  -0.871
REMARK UNBOUND:                -0.113
REMARK SMILES CCN(CC)CCNC(=O)c1c(C)[nH]c(/C=C2\C(=O)Nc3ccc(F)cc32)c1C
REMARK SMILES IDX 7 1 6 2 3 3 2 4 1 5 4 6 5 7 8 8 9 9 10 10 11 12 12 13 28 14
REMARK SMILES IDX 14 15 15 16 13 17 29 18 16 20 17 21 18 22 27 23 19 24 20 25
REMARK SMILES IDX 26 26 21 27 24 28 22 29 23 30 25 32
REMARK H PARENT 8 11 14 19 20 31
ROOT
ATOM      1  C   UNL     1     -38.305 158.108   3.264  1.00  0.00    +0.131 C 
ENDROOT
BRANCH   1   2
ATOM      2  C   UNL     1     -38.254 157.994   1.726  1.00  0.00    +0.105 C 
BRANCH   2   3
ATOM      3  N   UNL     1     -39.439 158.466   0.979  1.00  0.00    -0.302 NA
BRANCH   3   4
ATOM      4  C   UNL     1     -40.303 159.368   1.758  1.00  0.00    +0.081 C 
ATOM      5  C   UNL     1     -41.639 158.751   2.162  1.00  0.00    +0.021 C 
ENDBRANCH   3   4
BRANCH   3   6
ATOM      6  C   UNL     1     -39.056 159.051  -0.317  1.00  0.00    +0.081 C 
ATOM      7  C   UNL     1     -38.582 158.005  -1.322  1.00  0.00    +0.021 C 
ENDBRANCH   3   6
ENDBRANCH   2   3
ENDBRANCH   1   2
BRANCH   1   8
ATOM      8  N   UNL     1     -37.534 157.068   3.914  1.00  0.00    -0.351 N 
ATOM      9  C   UNL     1     -36.814 157.310   5.062  1.00  0.00    +0.253 C 
ATOM     10  O   UNL     1     -36.777 158.409   5.605  1.00  0.00    -0.269 OA
ATOM     11  H   UNL     1     -37.384 156.191   3.435  1.00  0.00    +0.163 HD
BRANCH   9  12
ATOM     12  C   UNL     1     -36.056 156.154   5.546  1.00  0.00    +0.063 A 
ATOM     13  C   UNL     1     -34.709 155.950   5.291  1.00  0.00    +0.025 A 
ATOM     14  C   UNL     1     -36.486 155.048   6.367  1.00  0.00    -0.013 A 
ATOM     15  N   UNL     1     -34.340 154.764   5.871  1.00  0.00    -0.358 N 
ATOM     16  C   UNL     1     -35.402 154.186   6.520  1.00  0.00    +0.043 A 
ATOM     17  C   UNL     1     -33.730 156.774   4.534  1.00  0.00    +0.065 C 
ATOM     18  C   UNL     1     -37.842 154.872   6.969  1.00  0.00    +0.047 C 
ATOM     19  H   UNL     1     -33.401 154.379   5.821  1.00  0.00    +0.166 HD
BRANCH  16  20
ATOM     20  C   UNL     1     -35.290 152.942   7.209  1.00  0.00    +0.041 C 
ATOM     21  C   UNL     1     -35.890 151.766   6.964  1.00  0.00    +0.051 C 
ATOM     22  C   UNL     1     -36.880 151.355   5.898  1.00  0.00    +0.256 C 
ATOM     23  C   UNL     1     -35.656 150.561   7.787  1.00  0.00    +0.014 A 
ATOM     24  O   UNL     1     -37.355 152.032   5.006  1.00  0.00    -0.269 OA
ATOM     25  N   UNL     1     -37.151 150.019   6.138  1.00  0.00    -0.321 N 
ATOM     26  C   UNL     1     -34.868 150.302   8.894  1.00  0.00    +0.050 A 
ATOM     27  C   UNL     1     -36.445 149.544   7.235  1.00  0.00    +0.049 A 
ATOM     28  C   UNL     1     -34.895 149.011   9.422  1.00  0.00    +0.123 A 
ATOM     29  C   UNL     1     -36.482 148.261   7.747  1.00  0.00    +0.030 A 
ATOM     30  C   UNL     1     -35.689 147.997   8.864  1.00  0.00    +0.041 A 
ATOM     31  H   UNL     1     -37.788 149.483   5.566  1.00  0.00    +0.170 HD
ATOM     32  F   UNL     1     -34.144 148.729  10.495  1.00  0.00    -0.207 F 
ENDBRANCH  16  20
ENDBRANCH   9  12
ENDBRANCH   1   8
TORSDOF 7
ENDMDL
MODEL 8
REMARK VINA RESULT:    -8.480      2.799      5.352
REMARK INTER + INTRA:         -12.063
REMARK INTER:                 -12.024
REMARK INTRA:                  -0.039
REMARK UNBOUND:                -0.113
REMARK SMILES CCN(CC)CCNC(=O)c1c(C)[nH]c(/C=C2\C(=O)Nc3ccc(F)cc32)c1C
REMARK SMILES IDX 7 1 6 2 3 3 2 4 1 5 4 6 5 7 8 8 9 9 10 10 11 12 12 13 28 14
REMARK SMILES IDX 14 15 15 16 13 17 29 18 16 20 17 21 18 22 27 23 19 24 20 25
REMARK SMILES IDX 26 26 21 27 24 28 22 29 23 30 25 32
REMARK H PARENT 8 11 14 19 20 31
ROOT
ATOM      1  C   UNL     1     -40.990 160.519  -0.330  1.00  0.00    +0.131 C 
ENDROOT
BRANCH   1   2
ATOM      2  C   UNL     1     -39.922 160.236   0.747  1.00  0.00    +0.105 C 
BRANCH   2   3
ATOM      3  N   UNL     1     -39.756 158.830   1.174  1.00  0.00    -0.302 NA
BRANCH   3   4
ATOM      4  C   UNL     1     -38.357 158.369   1.142  1.00  0.00    +0.081 C 
ATOM      5  C   UNL     1     -37.839 157.867   2.487  1.00  0.00    +0.021 C 
ENDBRANCH   3   4
BRANCH   3   6
ATOM      6  C   UNL     1     -40.387 158.590   2.482  1.00  0.00    +0.081 C 
ATOM      7  C   UNL     1     -41.905 158.737   2.443  1.00  0.00    +0.021 C 
ENDBRANCH   3   6
ENDBRANCH   2   3
ENDBRANCH   1   2
BRANCH   1   8
ATOM      8  N   UNL     1     -40.491 161.387  -1.378  1.00  0.00    -0.351 N 
ATOM      9  C   UNL     1     -39.459 161.005  -2.205  1.00  0.00    +0.253 C 
ATOM     10  O   UNL     1     -38.898 159.919  -2.111  1.00  0.00    -0.269 OA
ATOM     11  H   UNL     1     -40.789 162.352  -1.404  1.00  0.00    +0.163 HD
BRANCH   9  12
ATOM     12  C   UNL     1     -39.057 162.032  -3.169  1.00  0.00    +0.063 A 
ATOM     13  C   UNL     1     -38.613 163.296  -2.814  1.00  0.00    +0.025 A 
ATOM     14  C   UNL     1     -39.000 161.971  -4.610  1.00  0.00    -0.013 A 
ATOM     15  N   UNL     1     -38.351 163.994  -3.964  1.00  0.00    -0.358 N 
ATOM     16  C   UNL     1     -38.589 163.220  -5.072  1.00  0.00    +0.043 A 
ATOM     17  C   UNL     1     -38.423 163.916  -1.476  1.00  0.00    +0.065 C 
ATOM     18  C   UNL     1     -39.298 160.776  -5.454  1.00  0.00    +0.047 C 
ATOM     19  H   UNL     1     -38.020 164.955  -3.979  1.00  0.00    +0.166 HD
BRANCH  16  20
ATOM     20  C   UNL     1     -38.395 163.706  -6.398  1.00  0.00    +0.041 C 
ATOM     21  C   UNL     1     -37.609 163.236  -7.381  1.00  0.00    +0.051 C 
ATOM     22  C   UNL     1     -36.670 162.052  -7.426  1.00  0.00    +0.256 C 
ATOM     23  C   UNL     1     -37.528 163.868  -8.713  1.00  0.00    +0.014 A 
ATOM     24  O   UNL     1     -36.423 161.250  -6.545  1.00  0.00    -0.269 OA
ATOM     25  N   UNL     1     -36.128 162.055  -8.699  1.00  0.00    -0.321 N 
ATOM     26  C   UNL     1     -38.139 164.972  -9.283  1.00  0.00    +0.050 A 
ATOM     27  C   UNL     1     -36.619 163.108  -9.459  1.00  0.00    +0.049 A 
ATOM     28  C   UNL     1     -37.815 165.282 -10.604  1.00  0.00    +0.123 A 
ATOM     29  C   UNL     1     -36.289 163.404 -10.768  1.00  0.00    +0.030 A 
ATOM     30  C   UNL     1     -36.903 164.516 -11.345  1.00  0.00    +0.041 A 
ATOM     31  H   UNL     1     -35.461 161.363  -9.007  1.00  0.00    +0.170 HD
ATOM     32  F   UNL     1     -38.390 166.346 -11.183  1.00  0.00    -0.207 F 
ENDBRANCH  16  20
ENDBRANCH   9  12
ENDBRANCH   1   8
TORSDOF 7
ENDMDL
MODEL 9
REMARK VINA RESULT:    -7.975      6.042     12.374
REMARK INTER + INTRA:         -11.351
REMARK INTER:                 -10.580
REMARK INTRA:                  -0.772
REMARK UNBOUND:                -0.113
REMARK SMILES CCN(CC)CCNC(=O)c1c(C)[nH]c(/C=C2\C(=O)Nc3ccc(F)cc32)c1C
REMARK SMILES IDX 7 1 6 2 3 3 2 4 1 5 4 6 5 7 8 8 9 9 10 10 11 12 12 13 28 14
REMARK SMILES IDX 14 15 15 16 13 17 29 18 16 20 17 21 18 22 27 23 19 24 20 25
REMARK SMILES IDX 26 26 21 27 24 28 22 29 23 30 25 32
REMARK H PARENT 8 11 14 19 20 31
ROOT
ATOM      1  C   UNL     1     -38.889 158.470   2.671  1.00  0.00    +0.131 C 
ENDROOT
BRANCH   1   2
ATOM      2  C   UNL     1     -38.637 157.979   1.230  1.00  0.00    +0.105 C 
BRANCH   2   3
ATOM      3  N   UNL     1     -38.848 158.957   0.142  1.00  0.00    -0.302 NA
BRANCH   3   4
ATOM      4  C   UNL     1     -39.245 158.337  -1.134  1.00  0.00    +0.081 C 
ATOM      5  C   UNL     1     -38.646 159.012  -2.365  1.00  0.00    +0.021 C 
ENDBRANCH   3   4
BRANCH   3   6
ATOM      6  C   UNL     1     -39.778 160.022   0.552  1.00  0.00    +0.081 C 
ATOM      7  C   UNL     1     -41.208 159.772   0.083  1.00  0.00    +0.021 C 
ENDBRANCH   3   6
ENDBRANCH   2   3
ENDBRANCH   1   2
BRANCH   1   8
ATOM      8  N   UNL     1     -38.533 157.471   3.658  1.00  0.00    -0.351 N 
ATOM      9  C   UNL     1     -37.234 157.300   4.080  1.00  0.00    +0.253 C 
ATOM     10  O   UNL     1     -36.301 157.972   3.654  1.00  0.00    -0.269 OA
ATOM     11  H   UNL     1     -39.215 156.775   3.925  1.00  0.00    +0.163 HD
BRANCH   9  12
ATOM     12  C   UNL     1     -37.057 156.209   5.041  1.00  0.00    +0.063 A 
ATOM     13  C   UNL     1     -36.626 156.388   6.346  1.00  0.00    +0.025 A 
ATOM     14  C   UNL     1     -37.299 154.795   4.885  1.00  0.00    -0.013 A 
ATOM     15  N   UNL     1     -36.553 155.158   6.945  1.00  0.00    -0.358 N 
ATOM     16  C   UNL     1     -36.943 154.168   6.077  1.00  0.00    +0.043 A 
ATOM     17  C   UNL     1     -36.263 157.627   7.085  1.00  0.00    +0.065 C 
ATOM     18  C   UNL     1     -37.860 154.125   3.673  1.00  0.00    +0.047 C 
ATOM     19  H   UNL     1     -36.252 155.013   7.904  1.00  0.00    +0.166 HD
BRANCH  16  20
ATOM     20  C   UNL     1     -36.960 152.791   6.448  1.00  0.00    +0.041 C 
ATOM     21  C   UNL     1     -35.996 151.861   6.347  1.00  0.00    +0.051 C 
ATOM     22  C   UNL     1     -34.585 151.942   5.811  1.00  0.00    +0.256 C 
ATOM     23  C   UNL     1     -36.183 150.463   6.787  1.00  0.00    +0.014 A 
ATOM     24  O   UNL     1     -34.009 152.905   5.342  1.00  0.00    -0.269 OA
ATOM     25  N   UNL     1     -34.058 150.671   5.959  1.00  0.00    -0.321 N 
ATOM     26  C   UNL     1     -37.242 149.777   7.355  1.00  0.00    +0.050 A 
ATOM     27  C   UNL     1     -34.978 149.800   6.526  1.00  0.00    +0.049 A 
ATOM     28  C   UNL     1     -37.057 148.426   7.649  1.00  0.00    +0.123 A 
ATOM     29  C   UNL     1     -34.780 148.462   6.812  1.00  0.00    +0.030 A 
ATOM     30  C   UNL     1     -35.846 147.768   7.384  1.00  0.00    +0.041 A 
ATOM     31  H   UNL     1     -33.116 150.438   5.680  1.00  0.00    +0.170 HD
ATOM     32  F   UNL     1     -38.064 147.734   8.199  1.00  0.00    -0.207 F 
ENDBRANCH  16  20
ENDBRANCH   9  12
ENDBRANCH   1   8
TORSDOF 7
ENDMDL
MODEL 10
REMARK VINA RESULT:    -7.912      9.497     12.714
REMARK INTER + INTRA:         -11.263
REMARK INTER:                 -10.409
REMARK INTRA:                  -0.854
REMARK UNBOUND:                -0.113
REMARK SMILES CCN(CC)CCNC(=O)c1c(C)[nH]c(/C=C2\C(=O)Nc3ccc(F)cc32)c1C
REMARK SMILES IDX 7 1 6 2 3 3 2 4 1 5 4 6 5 7 8 8 9 9 10 10 11 12 12 13 28 14
REMARK SMILES IDX 14 15 15 16 13 17 29 18 16 20 17 21 18 22 27 23 19 24 20 25
REMARK SMILES IDX 26 26 21 27 24 28 22 29 23 30 25 32
REMARK H PARENT 8 11 14 19 20 31
ROOT
ATOM      1  C   UNL     1     -37.102 159.949   7.417  1.00  0.00    +0.131 C 
ENDROOT
BRANCH   1   2
ATOM      2  C   UNL     1     -37.424 160.396   8.857  1.00  0.00    +0.105 C 
BRANCH   2   3
ATOM      3  N   UNL     1     -37.138 161.805   9.202  1.00  0.00    -0.302 NA
BRANCH   3   4
ATOM      4  C   UNL     1     -37.822 162.261  10.424  1.00  0.00    +0.081 C 
ATOM      5  C   UNL     1     -38.146 163.752  10.434  1.00  0.00    +0.021 C 
ENDBRANCH   3   4
BRANCH   3   6
ATOM      6  C   UNL     1     -35.688 162.059   9.254  1.00  0.00    +0.081 C 
ATOM      7  C   UNL     1     -34.913 160.929   9.926  1.00  0.00    +0.021 C 
ENDBRANCH   3   6
ENDBRANCH   2   3
ENDBRANCH   1   2
BRANCH   1   8
ATOM      8  N   UNL     1     -36.478 158.641   7.378  1.00  0.00    -0.351 N 
ATOM      9  C   UNL     1     -36.353 157.933   6.204  1.00  0.00    +0.253 C 
ATOM     10  O   UNL     1     -36.755 158.355   5.126  1.00  0.00    -0.269 OA
ATOM     11  H   UNL     1     -36.278 158.164   8.245  1.00  0.00    +0.163 HD
BRANCH   9  12
ATOM     12  C   UNL     1     -35.745 156.611   6.368  1.00  0.00    +0.063 A 
ATOM     13  C   UNL     1     -34.428 156.318   6.047  1.00  0.00    +0.025 A 
ATOM     14  C   UNL     1     -36.316 155.392   6.890  1.00  0.00    -0.013 A 
ATOM     15  N   UNL     1     -34.212 154.989   6.303  1.00  0.00    -0.358 N 
ATOM     16  C   UNL     1     -35.344 154.396   6.803  1.00  0.00    +0.043 A 
ATOM     17  C   UNL     1     -33.348 157.184   5.506  1.00  0.00    +0.065 C 
ATOM     18  C   UNL     1     -37.690 155.233   7.452  1.00  0.00    +0.047 C 
ATOM     19  H   UNL     1     -33.326 154.520   6.142  1.00  0.00    +0.166 HD
BRANCH  16  20
ATOM     20  C   UNL     1     -35.391 153.015   7.154  1.00  0.00    +0.041 C 
ATOM     21  C   UNL     1     -36.130 152.020   6.636  1.00  0.00    +0.051 C 
ATOM     22  C   UNL     1     -37.155 152.015   5.524  1.00  0.00    +0.256 C 
ATOM     23  C   UNL     1     -36.052 150.628   7.123  1.00  0.00    +0.014 A 
ATOM     24  O   UNL     1     -37.536 152.947   4.843  1.00  0.00    -0.269 OA
ATOM     25  N   UNL     1     -37.590 150.704   5.427  1.00  0.00    -0.321 N 
ATOM     26  C   UNL     1     -35.310 150.004   8.111  1.00  0.00    +0.050 A 
ATOM     27  C   UNL     1     -36.956 149.887   6.352  1.00  0.00    +0.049 A 
ATOM     28  C   UNL     1     -35.500 148.635   8.297  1.00  0.00    +0.123 A 
ATOM     29  C   UNL     1     -37.155 148.530   6.527  1.00  0.00    +0.030 A 
ATOM     30  C   UNL     1     -36.408 147.898   7.521  1.00  0.00    +0.041 A 
ATOM     31  H   UNL     1     -38.283 150.412   4.755  1.00  0.00    +0.170 HD
ATOM     32  F   UNL     1     -34.797 148.002   9.247  1.00  0.00    -0.207 F 
ENDBRANCH  16  20
ENDBRANCH   9  12
ENDBRANCH   1   8
TORSDOF 7
ENDMDL
