REMARK SMILES O=[S@@]1CCc2nc(N3CCC(c4ncc(Cl)cn4)CC3)nc(NC3(CO)CCC3)c21
REMARK SMILES IDX 23 1 24 3 28 4 27 5 29 6 25 7 26 8 22 10 21 11 30 12 7 13
REMARK SMILES IDX 5 14 2 15 6 16 4 17 1 18 3 19 8 20 9 21 20 22 10 23 19 24
REMARK SMILES IDX 11 25 12 26 13 27 18 28 14 29 17 30 15 31 16 32
REMARK H PARENT 23 2 26 9
ROOT
ATOM      1  N   UNL     1      -3.659  -0.106  -0.539  1.00  0.00    -0.361 N 
ATOM      2  H   UNL     1      -4.349  -0.763  -0.158  1.00  0.00    +0.162 HD
ENDROOT
BRANCH   1   3
ATOM      3  C   UNL     1      -3.708   1.184   0.123  1.00  0.00    +0.062 C 
ATOM      4  C   UNL     1      -4.424   1.954   2.003  1.00  0.00    +0.005 C 
ATOM      5  C   UNL     1      -5.126   1.417   0.740  1.00  0.00    +0.031 C 
ATOM      6  C   UNL     1      -3.184   1.138   1.589  1.00  0.00    +0.031 C 
BRANCH   3   7
ATOM      7  C   UNL     1      -3.260   2.336  -0.787  1.00  0.00    +0.184 C 
BRANCH   7   8
ATOM      8  O   UNL     1      -1.841   2.399  -0.893  1.00  0.00    -0.394 OA
ATOM      9  H   UNL     1      -1.529   1.472  -0.963  1.00  0.00    +0.210 HD
ENDBRANCH   7   8
ENDBRANCH   3   7
ENDBRANCH   1   3
BRANCH   1  10
ATOM     10  C   UNL     1      -2.479  -0.844  -0.799  1.00  0.00    +0.148 A 
ATOM     11  N   UNL     1      -1.273  -0.293  -0.549  1.00  0.00    -0.194 NA
ATOM     12  C   UNL     1      -2.562  -2.092  -1.361  1.00  0.00    +0.103 A 
ATOM     13  C   UNL     1      -0.147  -1.005  -0.794  1.00  0.00    +0.227 A 
ATOM     14  C   UNL     1      -1.386  -2.761  -1.579  1.00  0.00    +0.065 A 
ATOM     15  S   UNL     1      -4.003  -3.026  -1.808  1.00  0.00    +0.059 S 
ATOM     16  N   UNL     1      -0.178  -2.247  -1.315  1.00  0.00    -0.217 NA
ATOM     17  C   UNL     1      -1.560  -4.128  -2.179  1.00  0.00    +0.072 C 
ATOM     18  O   UNL     1      -4.857  -3.023  -0.573  1.00  0.00    -0.254 OA
ATOM     19  C   UNL     1      -2.982  -4.555  -1.809  1.00  0.00    +0.117 C 
BRANCH  13  20
ATOM     20  N   UNL     1       1.094  -0.414  -0.523  1.00  0.00    -0.341 N 
ATOM     21  C   UNL     1       1.053   0.561   0.572  1.00  0.00    +0.120 C 
ATOM     22  C   UNL     1       2.211  -1.362  -0.508  1.00  0.00    +0.120 C 
ATOM     23  C   UNL     1       2.377   1.313   0.670  1.00  0.00    +0.033 C 
ATOM     24  C   UNL     1       3.542  -0.620  -0.418  1.00  0.00    +0.033 C 
ATOM     25  C   UNL     1       3.549   0.336   0.777  1.00  0.00    +0.061 C 
BRANCH  25  26
ATOM     26  C   UNL     1       4.864   1.068   0.891  1.00  0.00    +0.131 A 
ATOM     27  N   UNL     1       5.565   0.906   2.033  1.00  0.00    -0.240 NA
ATOM     28  N   UNL     1       5.264   1.840  -0.140  1.00  0.00    -0.240 NA
ATOM     29  C   UNL     1       6.738   1.574   2.122  1.00  0.00    +0.135 A 
ATOM     30  C   UNL     1       6.444   2.484   0.005  1.00  0.00    +0.135 A 
ATOM     31  C   UNL     1       7.230   2.386   1.128  1.00  0.00    +0.077 A 
ATOM     32 Cl   UNL     1       8.718   3.214   1.278  1.00  0.00    -0.081 Cl
ENDBRANCH  25  26
ENDBRANCH  13  20
ENDBRANCH   1  10
TORSDOF 6
