MODEL 1
REMARK VINA RESULT:    -8.599      0.000      0.000
REMARK INTER + INTRA:         -12.497
REMARK INTER:                 -11.363
REMARK INTRA:                  -1.133
REMARK UNBOUND:                -1.133
REMARK SMILES O=[S@@]1CCc2nc(N3CCC(c4ncc(Cl)cn4)CC3)nc(NC3(CO)CCC3)c21
REMARK SMILES IDX 23 1 24 3 28 4 27 5 29 6 25 7 26 8 22 10 21 11 30 12 7 13
REMARK SMILES IDX 5 14 2 15 6 16 4 17 1 18 3 19 8 20 9 21 20 22 10 23 19 24
REMARK SMILES IDX 11 25 12 26 13 27 18 28 14 29 17 30 15 31 16 32
REMARK H PARENT 23 2 26 9
ROOT
ATOM      1  N   UNL     1      -8.064   2.399 -17.540  1.00  0.00    -0.361 N 
ATOM      2  H   UNL     1      -7.985   2.785 -18.488  1.00  0.00    +0.162 HD
ENDROOT
BRANCH   1   3
ATOM      3  C   UNL     1      -6.789   1.924 -17.035  1.00  0.00    +0.062 C 
ATOM      4  C   UNL     1      -5.718   0.055 -16.995  1.00  0.00    +0.005 C 
ATOM      5  C   UNL     1      -6.983   0.568 -16.279  1.00  0.00    +0.031 C 
ATOM      6  C   UNL     1      -5.981   1.109 -18.088  1.00  0.00    +0.031 C 
BRANCH   3   7
ATOM      7  C   UNL     1      -6.056   2.975 -16.191  1.00  0.00    +0.184 C 
BRANCH   7   8
ATOM      8  O   UNL     1      -5.188   3.775 -16.987  1.00  0.00    -0.394 OA
ATOM      9  H   UNL     1      -4.280   3.608 -16.656  1.00  0.00    +0.210 HD
ENDBRANCH   7   8
ENDBRANCH   3   7
ENDBRANCH   1   3
BRANCH   1  10
ATOM     10  C   UNL     1      -8.967   3.223 -16.827  1.00  0.00    +0.148 A 
ATOM     11  N   UNL     1      -9.581   2.749 -15.723  1.00  0.00    -0.194 NA
ATOM     12  C   UNL     1      -9.263   4.478 -17.293  1.00  0.00    +0.103 A 
ATOM     13  C   UNL     1     -10.440   3.543 -15.040  1.00  0.00    +0.227 A 
ATOM     14  C   UNL     1     -10.136   5.232 -16.553  1.00  0.00    +0.065 A 
ATOM     15  S   UNL     1      -8.625   5.324 -18.717  1.00  0.00    +0.059 S 
ATOM     16  N   UNL     1     -10.738   4.794 -15.440  1.00  0.00    -0.217 NA
ATOM     17  C   UNL     1     -10.395   6.601 -17.117  1.00  0.00    +0.072 C 
ATOM     18  O   UNL     1      -7.133   5.226 -18.581  1.00  0.00    -0.254 OA
ATOM     19  C   UNL     1      -9.176   6.918 -17.986  1.00  0.00    +0.117 C 
BRANCH  13  20
ATOM     20  N   UNL     1     -11.062   3.031 -13.894  1.00  0.00    -0.341 N 
ATOM     21  C   UNL     1     -12.521   3.187 -13.899  1.00  0.00    +0.120 C 
ATOM     22  C   UNL     1     -10.550   1.723 -13.476  1.00  0.00    +0.120 C 
ATOM     23  C   UNL     1     -13.105   2.805 -12.543  1.00  0.00    +0.033 C 
ATOM     24  C   UNL     1     -11.123   1.334 -12.116  1.00  0.00    +0.033 C 
ATOM     25  C   UNL     1     -12.652   1.403 -12.132  1.00  0.00    +0.061 C 
BRANCH  25  26
ATOM     26  C   UNL     1     -13.237   1.007 -10.798  1.00  0.00    +0.131 A 
ATOM     27  N   UNL     1     -14.498   1.407 -10.533  1.00  0.00    -0.240 NA
ATOM     28  N   UNL     1     -12.477   0.284  -9.950  1.00  0.00    -0.240 NA
ATOM     29  C   UNL     1     -15.005   1.049  -9.331  1.00  0.00    +0.135 A 
ATOM     30  C   UNL     1     -13.036  -0.044  -8.763  1.00  0.00    +0.135 A 
ATOM     31  C   UNL     1     -14.310   0.317  -8.398  1.00  0.00    +0.077 A 
ATOM     32 Cl   UNL     1     -14.986  -0.117  -6.889  1.00  0.00    -0.081 Cl
ENDBRANCH  25  26
ENDBRANCH  13  20
ENDBRANCH   1  10
TORSDOF 6
ENDMDL
MODEL 2
REMARK VINA RESULT:    -8.553      1.121      1.647
REMARK INTER + INTRA:         -12.436
REMARK INTER:                 -11.328
REMARK INTRA:                  -1.108
REMARK UNBOUND:                -1.133
REMARK SMILES O=[S@@]1CCc2nc(N3CCC(c4ncc(Cl)cn4)CC3)nc(NC3(CO)CCC3)c21
REMARK SMILES IDX 23 1 24 3 28 4 27 5 29 6 25 7 26 8 22 10 21 11 30 12 7 13
REMARK SMILES IDX 5 14 2 15 6 16 4 17 1 18 3 19 8 20 9 21 20 22 10 23 19 24
REMARK SMILES IDX 11 25 12 26 13 27 18 28 14 29 17 30 15 31 16 32
REMARK H PARENT 23 2 26 9
ROOT
ATOM      1  N   UNL     1      -8.091   2.099 -17.106  1.00  0.00    -0.361 N 
ATOM      2  H   UNL     1      -7.897   2.531 -18.016  1.00  0.00    +0.162 HD
ENDROOT
BRANCH   1   3
ATOM      3  C   UNL     1      -6.900   1.528 -16.506  1.00  0.00    +0.062 C 
ATOM      4  C   UNL     1      -4.799   1.998 -16.440  1.00  0.00    +0.005 C 
ATOM      5  C   UNL     1      -5.738   1.489 -17.551  1.00  0.00    +0.031 C 
ATOM      6  C   UNL     1      -6.043   2.575 -15.735  1.00  0.00    +0.031 C 
BRANCH   3   7
ATOM      7  C   UNL     1      -7.159   0.161 -15.856  1.00  0.00    +0.184 C 
BRANCH   7   8
ATOM      8  O   UNL     1      -8.445  -0.347 -16.198  1.00  0.00    -0.394 OA
ATOM      9  H   UNL     1      -8.904  -0.527 -15.351  1.00  0.00    +0.210 HD
ENDBRANCH   7   8
ENDBRANCH   3   7
ENDBRANCH   1   3
BRANCH   1  10
ATOM     10  C   UNL     1      -9.020   2.932 -16.437  1.00  0.00    +0.148 A 
ATOM     11  N   UNL     1      -9.674   2.473 -15.350  1.00  0.00    -0.194 NA
ATOM     12  C   UNL     1      -9.300   4.180 -16.932  1.00  0.00    +0.103 A 
ATOM     13  C   UNL     1     -10.558   3.276 -14.710  1.00  0.00    +0.227 A 
ATOM     14  C   UNL     1     -10.200   4.943 -16.236  1.00  0.00    +0.065 A 
ATOM     15  S   UNL     1      -8.612   5.006 -18.344  1.00  0.00    +0.059 S 
ATOM     16  N   UNL     1     -10.842   4.521 -15.139  1.00  0.00    -0.217 NA
ATOM     17  C   UNL     1     -10.440   6.303 -16.829  1.00  0.00    +0.072 C 
ATOM     18  O   UNL     1      -7.125   4.912 -18.152  1.00  0.00    -0.254 OA
ATOM     19  C   UNL     1      -9.190   6.610 -17.657  1.00  0.00    +0.117 C 
BRANCH  13  20
ATOM     20  N   UNL     1     -11.221   2.780 -13.581  1.00  0.00    -0.341 N 
ATOM     21  C   UNL     1     -12.678   2.945 -13.636  1.00  0.00    +0.120 C 
ATOM     22  C   UNL     1     -10.731   1.474 -13.132  1.00  0.00    +0.120 C 
ATOM     23  C   UNL     1     -13.309   2.580 -12.296  1.00  0.00    +0.033 C 
ATOM     24  C   UNL     1     -11.351   1.102 -11.788  1.00  0.00    +0.033 C 
ATOM     25  C   UNL     1     -12.878   1.180 -11.856  1.00  0.00    +0.061 C 
BRANCH  25  26
ATOM     26  C   UNL     1     -13.510   0.801 -10.538  1.00  0.00    +0.131 A 
ATOM     27  N   UNL     1     -12.877  -0.131  -9.794  1.00  0.00    -0.240 NA
ATOM     28  N   UNL     1     -14.662   1.402 -10.179  1.00  0.00    -0.240 NA
ATOM     29  C   UNL     1     -13.459  -0.464  -8.620  1.00  0.00    +0.135 A 
ATOM     30  C   UNL     1     -15.199   1.030  -8.995  1.00  0.00    +0.135 A 
ATOM     31  C   UNL     1     -14.633   0.090  -8.167  1.00  0.00    +0.077 A 
ATOM     32 Cl   UNL     1     -15.338  -0.358  -6.675  1.00  0.00    -0.081 Cl
ENDBRANCH  25  26
ENDBRANCH  13  20
ENDBRANCH   1  10
TORSDOF 6
ENDMDL
MODEL 3
REMARK VINA RESULT:    -8.398      0.696      1.429
REMARK INTER + INTRA:         -12.231
REMARK INTER:                 -11.240
REMARK INTRA:                  -0.991
REMARK UNBOUND:                -1.133
REMARK SMILES O=[S@@]1CCc2nc(N3CCC(c4ncc(Cl)cn4)CC3)nc(NC3(CO)CCC3)c21
REMARK SMILES IDX 23 1 24 3 28 4 27 5 29 6 25 7 26 8 22 10 21 11 30 12 7 13
REMARK SMILES IDX 5 14 2 15 6 16 4 17 1 18 3 19 8 20 9 21 20 22 10 23 19 24
REMARK SMILES IDX 11 25 12 26 13 27 18 28 14 29 17 30 15 31 16 32
REMARK H PARENT 23 2 26 9
ROOT
ATOM      1  N   UNL     1      -7.826   2.270 -17.571  1.00  0.00    -0.361 N 
ATOM      2  H   UNL     1      -7.635   2.825 -18.412  1.00  0.00    +0.162 HD
ENDROOT
BRANCH   1   3
ATOM      3  C   UNL     1      -6.620   1.691 -17.010  1.00  0.00    +0.062 C 
ATOM      4  C   UNL     1      -5.716  -0.262 -16.917  1.00  0.00    +0.005 C 
ATOM      5  C   UNL     1      -6.961   0.363 -16.257  1.00  0.00    +0.031 C 
ATOM      6  C   UNL     1      -5.841   0.802 -18.025  1.00  0.00    +0.031 C 
BRANCH   3   7
ATOM      7  C   UNL     1      -5.834   2.682 -16.140  1.00  0.00    +0.184 C 
BRANCH   7   8
ATOM      8  O   UNL     1      -5.141   3.641 -16.933  1.00  0.00    -0.394 OA
ATOM      9  H   UNL     1      -5.715   3.825 -17.706  1.00  0.00    +0.210 HD
ENDBRANCH   7   8
ENDBRANCH   3   7
ENDBRANCH   1   3
BRANCH   1  10
ATOM     10  C   UNL     1      -8.818   2.959 -16.832  1.00  0.00    +0.148 A 
ATOM     11  N   UNL     1      -9.483   2.324 -15.845  1.00  0.00    -0.194 NA
ATOM     12  C   UNL     1      -9.144   4.249 -17.161  1.00  0.00    +0.103 A 
ATOM     13  C   UNL     1     -10.428   2.989 -15.137  1.00  0.00    +0.227 A 
ATOM     14  C   UNL     1     -10.104   4.867 -16.403  1.00  0.00    +0.065 A 
ATOM     15  S   UNL     1      -8.451   5.294 -18.417  1.00  0.00    +0.059 S 
ATOM     16  N   UNL     1     -10.760   4.268 -15.401  1.00  0.00    -0.217 NA
ATOM     17  C   UNL     1     -10.392   6.284 -16.813  1.00  0.00    +0.072 C 
ATOM     18  O   UNL     1      -6.969   5.243 -18.181  1.00  0.00    -0.254 OA
ATOM     19  C   UNL     1      -9.133   6.759 -17.540  1.00  0.00    +0.117 C 
BRANCH  13  20
ATOM     20  N   UNL     1     -11.102   2.311 -14.114  1.00  0.00    -0.341 N 
ATOM     21  C   UNL     1     -10.225   1.477 -13.284  1.00  0.00    +0.120 C 
ATOM     22  C   UNL     1     -12.080   3.136 -13.400  1.00  0.00    +0.120 C 
ATOM     23  C   UNL     1     -11.049   0.611 -12.335  1.00  0.00    +0.033 C 
ATOM     24  C   UNL     1     -12.916   2.279 -12.453  1.00  0.00    +0.033 C 
ATOM     25  C   UNL     1     -12.014   1.471 -11.517  1.00  0.00    +0.061 C 
BRANCH  25  26
ATOM     26  C   UNL     1     -12.824   0.627 -10.562  1.00  0.00    +0.131 A 
ATOM     27  N   UNL     1     -12.189  -0.395  -9.950  1.00  0.00    -0.240 NA
ATOM     28  N   UNL     1     -14.124   0.932 -10.375  1.00  0.00    -0.240 NA
ATOM     29  C   UNL     1     -12.931  -1.145  -9.102  1.00  0.00    +0.135 A 
ATOM     30  C   UNL     1     -14.815   0.148  -9.518  1.00  0.00    +0.135 A 
ATOM     31  C   UNL     1     -14.262  -0.916  -8.847  1.00  0.00    +0.077 A 
ATOM     32 Cl   UNL     1     -15.165  -1.887  -7.769  1.00  0.00    -0.081 Cl
ENDBRANCH  25  26
ENDBRANCH  13  20
ENDBRANCH   1  10
TORSDOF 6
ENDMDL
MODEL 4
REMARK VINA RESULT:    -7.832      5.404      9.455
REMARK INTER + INTRA:         -11.484
REMARK INTER:                 -10.338
REMARK INTRA:                  -1.146
REMARK UNBOUND:                -1.133
REMARK SMILES O=[S@@]1CCc2nc(N3CCC(c4ncc(Cl)cn4)CC3)nc(NC3(CO)CCC3)c21
REMARK SMILES IDX 23 1 24 3 28 4 27 5 29 6 25 7 26 8 22 10 21 11 30 12 7 13
REMARK SMILES IDX 5 14 2 15 6 16 4 17 1 18 3 19 8 20 9 21 20 22 10 23 19 24
REMARK SMILES IDX 11 25 12 26 13 27 18 28 14 29 17 30 15 31 16 32
REMARK H PARENT 23 2 26 9
ROOT
ATOM      1  N   UNL     1     -12.204  -2.157  -9.059  1.00  0.00    -0.361 N 
ATOM      2  H   UNL     1     -12.520  -2.380  -8.108  1.00  0.00    +0.162 HD
ENDROOT
BRANCH   1   3
ATOM      3  C   UNL     1     -12.062  -3.344  -9.881  1.00  0.00    +0.062 C 
ATOM      4  C   UNL     1     -13.038  -5.256 -10.053  1.00  0.00    +0.005 C 
ATOM      5  C   UNL     1     -12.119  -4.626  -8.988  1.00  0.00    +0.031 C 
ATOM      6  C   UNL     1     -13.410  -3.827 -10.493  1.00  0.00    +0.031 C 
BRANCH   3   7
ATOM      7  C   UNL     1     -10.817  -3.300 -10.777  1.00  0.00    +0.184 C 
BRANCH   7   8
ATOM      8  O   UNL     1     -11.138  -2.887 -12.102  1.00  0.00    -0.394 OA
ATOM      9  H   UNL     1     -10.486  -3.321 -12.691  1.00  0.00    +0.210 HD
ENDBRANCH   7   8
ENDBRANCH   3   7
ENDBRANCH   1   3
BRANCH   1  10
ATOM     10  C   UNL     1     -12.867  -0.969  -9.450  1.00  0.00    +0.148 A 
ATOM     11  N   UNL     1     -12.435  -0.282 -10.528  1.00  0.00    -0.194 NA
ATOM     12  C   UNL     1     -13.907  -0.486  -8.699  1.00  0.00    +0.103 A 
ATOM     13  C   UNL     1     -13.076   0.851 -10.903  1.00  0.00    +0.227 A 
ATOM     14  C   UNL     1     -14.515   0.663  -9.134  1.00  0.00    +0.065 A 
ATOM     15  S   UNL     1     -14.647  -1.170  -7.238  1.00  0.00    +0.059 S 
ATOM     16  N   UNL     1     -14.123   1.348 -10.216  1.00  0.00    -0.217 NA
ATOM     17  C   UNL     1     -15.657   1.118  -8.269  1.00  0.00    +0.072 C 
ATOM     18  O   UNL     1     -14.968  -2.590  -7.604  1.00  0.00    -0.254 OA
ATOM     19  C   UNL     1     -16.138  -0.137  -7.538  1.00  0.00    +0.117 C 
BRANCH  13  20
ATOM     20  N   UNL     1     -12.612   1.545 -12.028  1.00  0.00    -0.341 N 
ATOM     21  C   UNL     1     -13.330   2.799 -12.281  1.00  0.00    +0.120 C 
ATOM     22  C   UNL     1     -11.151   1.600 -12.129  1.00  0.00    +0.120 C 
ATOM     23  C   UNL     1     -12.920   3.389 -13.627  1.00  0.00    +0.033 C 
ATOM     24  C   UNL     1     -10.730   2.182 -13.476  1.00  0.00    +0.033 C 
ATOM     25  C   UNL     1     -11.400   3.537 -13.714  1.00  0.00    +0.061 C 
BRANCH  25  26
ATOM     26  C   UNL     1     -10.983   4.135 -15.036  1.00  0.00    +0.131 A 
ATOM     27  N   UNL     1     -11.605   5.267 -15.426  1.00  0.00    -0.240 NA
ATOM     28  N   UNL     1     -10.024   3.512 -15.751  1.00  0.00    -0.240 NA
ATOM     29  C   UNL     1     -11.224   5.786 -16.616  1.00  0.00    +0.135 A 
ATOM     30  C   UNL     1      -9.684   4.076 -16.932  1.00  0.00    +0.135 A 
ATOM     31  C   UNL     1     -10.259   5.226 -17.419  1.00  0.00    +0.077 A 
ATOM     32 Cl   UNL     1      -9.805   5.913 -18.917  1.00  0.00    -0.081 Cl
ENDBRANCH  25  26
ENDBRANCH  13  20
ENDBRANCH   1  10
TORSDOF 6
ENDMDL
MODEL 5
REMARK VINA RESULT:    -7.751      1.795      3.786
REMARK INTER + INTRA:         -11.377
REMARK INTER:                 -10.516
REMARK INTRA:                  -0.861
REMARK UNBOUND:                -1.133
REMARK SMILES O=[S@@]1CCc2nc(N3CCC(c4ncc(Cl)cn4)CC3)nc(NC3(CO)CCC3)c21
REMARK SMILES IDX 23 1 24 3 28 4 27 5 29 6 25 7 26 8 22 10 21 11 30 12 7 13
REMARK SMILES IDX 5 14 2 15 6 16 4 17 1 18 3 19 8 20 9 21 20 22 10 23 19 24
REMARK SMILES IDX 11 25 12 26 13 27 18 28 14 29 17 30 15 31 16 32
REMARK H PARENT 23 2 26 9
ROOT
ATOM      1  N   UNL     1      -9.838   4.056 -17.064  1.00  0.00    -0.361 N 
ATOM      2  H   UNL     1     -10.506   3.409 -17.497  1.00  0.00    +0.162 HD
ENDROOT
BRANCH   1   3
ATOM      3  C   UNL     1     -10.278   5.436 -17.148  1.00  0.00    +0.062 C 
ATOM      4  C   UNL     1     -10.015   7.083 -18.511  1.00  0.00    +0.005 C 
ATOM      5  C   UNL     1      -9.075   6.361 -17.526  1.00  0.00    +0.031 C 
ATOM      6  C   UNL     1     -10.872   5.803 -18.541  1.00  0.00    +0.031 C 
BRANCH   3   7
ATOM      7  C   UNL     1     -11.012   5.904 -15.884  1.00  0.00    +0.184 C 
BRANCH   7   8
ATOM      8  O   UNL     1     -12.261   5.238 -15.727  1.00  0.00    -0.394 OA
ATOM      9  H   UNL     1     -12.067   4.391 -15.273  1.00  0.00    +0.210 HD
ENDBRANCH   7   8
ENDBRANCH   3   7
ENDBRANCH   1   3
BRANCH   1  10
ATOM     10  C   UNL     1      -9.347   3.428 -15.894  1.00  0.00    +0.148 A 
ATOM     11  N   UNL     1     -10.206   3.042 -14.927  1.00  0.00    -0.194 NA
ATOM     12  C   UNL     1      -7.997   3.268 -15.717  1.00  0.00    +0.103 A 
ATOM     13  C   UNL     1      -9.733   2.436 -13.812  1.00  0.00    +0.227 A 
ATOM     14  C   UNL     1      -7.584   2.643 -14.570  1.00  0.00    +0.065 A 
ATOM     15  S   UNL     1      -6.665   3.705 -16.806  1.00  0.00    +0.059 S 
ATOM     16  N   UNL     1      -8.418   2.228 -13.608  1.00  0.00    -0.217 NA
ATOM     17  C   UNL     1      -6.093   2.489 -14.458  1.00  0.00    +0.072 C 
ATOM     18  O   UNL     1      -7.031   3.084 -18.123  1.00  0.00    -0.254 OA
ATOM     19  C   UNL     1      -5.571   2.541 -15.895  1.00  0.00    +0.117 C 
BRANCH  13  20
ATOM     20  N   UNL     1     -10.644   2.041 -12.824  1.00  0.00    -0.341 N 
ATOM     21  C   UNL     1     -12.013   2.506 -13.069  1.00  0.00    +0.120 C 
ATOM     22  C   UNL     1     -10.496   0.644 -12.406  1.00  0.00    +0.120 C 
ATOM     23  C   UNL     1     -12.899   2.224 -11.859  1.00  0.00    +0.033 C 
ATOM     24  C   UNL     1     -11.372   0.353 -11.191  1.00  0.00    +0.033 C 
ATOM     25  C   UNL     1     -12.825   0.748 -11.464  1.00  0.00    +0.061 C 
BRANCH  25  26
ATOM     26  C   UNL     1     -13.710   0.453 -10.278  1.00  0.00    +0.131 A 
ATOM     27  N   UNL     1     -14.593   1.406  -9.913  1.00  0.00    -0.240 NA
ATOM     28  N   UNL     1     -13.572  -0.732  -9.649  1.00  0.00    -0.240 NA
ATOM     29  C   UNL     1     -15.374   1.129  -8.843  1.00  0.00    +0.135 A 
ATOM     30  C   UNL     1     -14.379  -0.954  -8.587  1.00  0.00    +0.135 A 
ATOM     31  C   UNL     1     -15.308  -0.048  -8.135  1.00  0.00    +0.077 A 
ATOM     32 Cl   UNL     1     -16.313  -0.361  -6.789  1.00  0.00    -0.081 Cl
ENDBRANCH  25  26
ENDBRANCH  13  20
ENDBRANCH   1  10
TORSDOF 6
ENDMDL
MODEL 6
REMARK VINA RESULT:    -7.738      4.199      7.632
REMARK INTER + INTRA:         -11.359
REMARK INTER:                 -10.519
REMARK INTRA:                  -0.840
REMARK UNBOUND:                -1.133
REMARK SMILES O=[S@@]1CCc2nc(N3CCC(c4ncc(Cl)cn4)CC3)nc(NC3(CO)CCC3)c21
REMARK SMILES IDX 23 1 24 3 28 4 27 5 29 6 25 7 26 8 22 10 21 11 30 12 7 13
REMARK SMILES IDX 5 14 2 15 6 16 4 17 1 18 3 19 8 20 9 21 20 22 10 23 19 24
REMARK SMILES IDX 11 25 12 26 13 27 18 28 14 29 17 30 15 31 16 32
REMARK H PARENT 23 2 26 9
ROOT
ATOM      1  N   UNL     1     -10.957   3.887 -15.358  1.00  0.00    -0.361 N 
ATOM      2  H   UNL     1     -11.771   3.892 -15.982  1.00  0.00    +0.162 HD
ENDROOT
BRANCH   1   3
ATOM      3  C   UNL     1     -11.261   3.299 -14.067  1.00  0.00    +0.062 C 
ATOM      4  C   UNL     1     -13.018   2.587 -13.045  1.00  0.00    +0.005 C 
ATOM      5  C   UNL     1     -12.519   3.989 -13.446  1.00  0.00    +0.031 C 
ATOM      6  C   UNL     1     -12.137   2.015 -14.173  1.00  0.00    +0.031 C 
BRANCH   3   7
ATOM      7  C   UNL     1     -10.055   3.295 -13.117  1.00  0.00    +0.184 C 
BRANCH   7   8
ATOM      8  O   UNL     1      -9.582   1.974 -12.875  1.00  0.00    -0.394 OA
ATOM      9  H   UNL     1      -9.701   1.810 -11.916  1.00  0.00    +0.210 HD
ENDBRANCH   7   8
ENDBRANCH   3   7
ENDBRANCH   1   3
BRANCH   1  10
ATOM     10  C   UNL     1      -9.825   3.575 -16.149  1.00  0.00    +0.148 A 
ATOM     11  N   UNL     1      -9.221   2.376 -16.014  1.00  0.00    -0.194 NA
ATOM     12  C   UNL     1      -9.308   4.513 -17.006  1.00  0.00    +0.103 A 
ATOM     13  C   UNL     1      -8.142   2.079 -16.778  1.00  0.00    +0.227 A 
ATOM     14  C   UNL     1      -8.219   4.147 -17.752  1.00  0.00    +0.065 A 
ATOM     15  S   UNL     1      -9.886   6.155 -17.350  1.00  0.00    +0.059 S 
ATOM     16  N   UNL     1      -7.618   2.955 -17.657  1.00  0.00    -0.217 NA
ATOM     17  C   UNL     1      -7.723   5.221 -18.680  1.00  0.00    +0.072 C 
ATOM     18  O   UNL     1     -11.341   5.985 -17.681  1.00  0.00    -0.254 OA
ATOM     19  C   UNL     1      -8.924   6.139 -18.916  1.00  0.00    +0.117 C 
BRANCH  13  20
ATOM     20  N   UNL     1      -7.534   0.826 -16.624  1.00  0.00    -0.341 N 
ATOM     21  C   UNL     1      -6.232   0.720 -17.291  1.00  0.00    +0.120 C 
ATOM     22  C   UNL     1      -7.612   0.294 -15.261  1.00  0.00    +0.120 C 
ATOM     23  C   UNL     1      -5.731  -0.721 -17.262  1.00  0.00    +0.033 C 
ATOM     24  C   UNL     1      -7.120  -1.151 -15.222  1.00  0.00    +0.033 C 
ATOM     25  C   UNL     1      -5.721  -1.263 -15.832  1.00  0.00    +0.061 C 
BRANCH  25  26
ATOM     26  C   UNL     1      -5.211  -2.683 -15.788  1.00  0.00    +0.131 A 
ATOM     27  N   UNL     1      -6.071  -3.636 -15.370  1.00  0.00    -0.240 NA
ATOM     28  N   UNL     1      -3.937  -2.923 -16.160  1.00  0.00    -0.240 NA
ATOM     29  C   UNL     1      -5.597  -4.903 -15.330  1.00  0.00    +0.135 A 
ATOM     30  C   UNL     1      -3.518  -4.207 -16.099  1.00  0.00    +0.135 A 
ATOM     31  C   UNL     1      -4.315  -5.248 -15.686  1.00  0.00    +0.077 A 
ATOM     32 Cl   UNL     1      -3.753  -6.861 -15.622  1.00  0.00    -0.081 Cl
ENDBRANCH  25  26
ENDBRANCH  13  20
ENDBRANCH   1  10
TORSDOF 6
ENDMDL
MODEL 7
REMARK VINA RESULT:    -7.728      2.190      3.111
REMARK INTER + INTRA:         -11.347
REMARK INTER:                 -10.236
REMARK INTRA:                  -1.110
REMARK UNBOUND:                -1.133
REMARK SMILES O=[S@@]1CCc2nc(N3CCC(c4ncc(Cl)cn4)CC3)nc(NC3(CO)CCC3)c21
REMARK SMILES IDX 23 1 24 3 28 4 27 5 29 6 25 7 26 8 22 10 21 11 30 12 7 13
REMARK SMILES IDX 5 14 2 15 6 16 4 17 1 18 3 19 8 20 9 21 20 22 10 23 19 24
REMARK SMILES IDX 11 25 12 26 13 27 18 28 14 29 17 30 15 31 16 32
REMARK H PARENT 23 2 26 9
ROOT
ATOM      1  N   UNL     1      -7.056  -1.071 -16.193  1.00  0.00    -0.361 N 
ATOM      2  H   UNL     1      -6.957  -1.035 -17.214  1.00  0.00    +0.162 HD
ENDROOT
BRANCH   1   3
ATOM      3  C   UNL     1      -5.802  -1.381 -15.533  1.00  0.00    +0.062 C 
ATOM      4  C   UNL     1      -4.396  -3.013 -15.526  1.00  0.00    +0.005 C 
ATOM      5  C   UNL     1      -5.830  -2.846 -14.987  1.00  0.00    +0.031 C 
ATOM      6  C   UNL     1      -4.699  -1.872 -16.516  1.00  0.00    +0.031 C 
BRANCH   3   7
ATOM      7  C   UNL     1      -5.428  -0.353 -14.455  1.00  0.00    +0.184 C 
BRANCH   7   8
ATOM      8  O   UNL     1      -4.411   0.535 -14.908  1.00  0.00    -0.394 OA
ATOM      9  H   UNL     1      -4.674   1.430 -14.608  1.00  0.00    +0.210 HD
ENDBRANCH   7   8
ENDBRANCH   3   7
ENDBRANCH   1   3
BRANCH   1  10
ATOM     10  C   UNL     1      -7.936  -0.026 -15.822  1.00  0.00    +0.148 A 
ATOM     11  N   UNL     1      -8.808  -0.210 -14.808  1.00  0.00    -0.194 NA
ATOM     12  C   UNL     1      -7.943   1.147 -16.531  1.00  0.00    +0.103 A 
ATOM     13  C   UNL     1      -9.644   0.795 -14.453  1.00  0.00    +0.227 A 
ATOM     14  C   UNL     1      -8.810   2.125 -16.117  1.00  0.00    +0.065 A 
ATOM     15  S   UNL     1      -6.932   1.632 -17.906  1.00  0.00    +0.059 S 
ATOM     16  N   UNL     1      -9.666   1.977 -15.098  1.00  0.00    -0.217 NA
ATOM     17  C   UNL     1      -8.746   3.387 -16.931  1.00  0.00    +0.072 C 
ATOM     18  O   UNL     1      -5.524   1.382 -17.450  1.00  0.00    -0.254 OA
ATOM     19  C   UNL     1      -7.354   3.389 -17.567  1.00  0.00    +0.117 C 
BRANCH  13  20
ATOM     20  N   UNL     1     -10.538   0.582 -13.395  1.00  0.00    -0.341 N 
ATOM     21  C   UNL     1     -10.066  -0.405 -12.418  1.00  0.00    +0.120 C 
ATOM     22  C   UNL     1     -11.113   1.814 -12.849  1.00  0.00    +0.120 C 
ATOM     23  C   UNL     1     -11.171  -0.740 -11.419  1.00  0.00    +0.033 C 
ATOM     24  C   UNL     1     -12.225   1.491 -11.854  1.00  0.00    +0.033 C 
ATOM     25  C   UNL     1     -11.722   0.532 -10.773  1.00  0.00    +0.061 C 
BRANCH  25  26
ATOM     26  C   UNL     1     -12.804   0.213  -9.771  1.00  0.00    +0.131 A 
ATOM     27  N   UNL     1     -14.027   0.740  -9.992  1.00  0.00    -0.240 NA
ATOM     28  N   UNL     1     -12.496  -0.570  -8.716  1.00  0.00    -0.240 NA
ATOM     29  C   UNL     1     -14.984   0.450  -9.081  1.00  0.00    +0.135 A 
ATOM     30  C   UNL     1     -13.492  -0.826  -7.838  1.00  0.00    +0.135 A 
ATOM     31  C   UNL     1     -14.769  -0.335  -7.973  1.00  0.00    +0.077 A 
ATOM     32 Cl   UNL     1     -16.005  -0.680  -6.844  1.00  0.00    -0.081 Cl
ENDBRANCH  25  26
ENDBRANCH  13  20
ENDBRANCH   1  10
TORSDOF 6
ENDMDL
MODEL 8
REMARK VINA RESULT:    -7.439      1.617      3.636
REMARK INTER + INTRA:         -10.964
REMARK INTER:                 -10.147
REMARK INTRA:                  -0.817
REMARK UNBOUND:                -1.133
REMARK SMILES O=[S@@]1CCc2nc(N3CCC(c4ncc(Cl)cn4)CC3)nc(NC3(CO)CCC3)c21
REMARK SMILES IDX 23 1 24 3 28 4 27 5 29 6 25 7 26 8 22 10 21 11 30 12 7 13
REMARK SMILES IDX 5 14 2 15 6 16 4 17 1 18 3 19 8 20 9 21 20 22 10 23 19 24
REMARK SMILES IDX 11 25 12 26 13 27 18 28 14 29 17 30 15 31 16 32
REMARK H PARENT 23 2 26 9
ROOT
ATOM      1  N   UNL     1      -9.521   3.665 -17.169  1.00  0.00    -0.361 N 
ATOM      2  H   UNL     1     -10.296   3.080 -17.501  1.00  0.00    +0.162 HD
ENDROOT
BRANCH   1   3
ATOM      3  C   UNL     1      -9.763   5.076 -17.401  1.00  0.00    +0.062 C 
ATOM      4  C   UNL     1     -11.468   6.393 -17.408  1.00  0.00    +0.005 C 
ATOM      5  C   UNL     1     -10.997   5.262 -18.343  1.00  0.00    +0.031 C 
ATOM      6  C   UNL     1     -10.634   5.737 -16.291  1.00  0.00    +0.031 C 
BRANCH   3   7
ATOM      7  C   UNL     1      -8.517   5.818 -17.903  1.00  0.00    +0.184 C 
BRANCH   7   8
ATOM      8  O   UNL     1      -8.104   5.345 -19.181  1.00  0.00    -0.394 OA
ATOM      9  H   UNL     1      -7.337   4.755 -19.021  1.00  0.00    +0.210 HD
ENDBRANCH   7   8
ENDBRANCH   3   7
ENDBRANCH   1   3
BRANCH   1  10
ATOM     10  C   UNL     1      -9.068   3.105 -15.950  1.00  0.00    +0.148 A 
ATOM     11  N   UNL     1      -9.958   2.766 -14.995  1.00  0.00    -0.194 NA
ATOM     12  C   UNL     1      -7.723   2.966 -15.719  1.00  0.00    +0.103 A 
ATOM     13  C   UNL     1      -9.520   2.226 -13.832  1.00  0.00    +0.227 A 
ATOM     14  C   UNL     1      -7.347   2.409 -14.525  1.00  0.00    +0.065 A 
ATOM     15  S   UNL     1      -6.357   3.354 -16.783  1.00  0.00    +0.059 S 
ATOM     16  N   UNL     1      -8.211   2.039 -13.571  1.00  0.00    -0.217 NA
ATOM     17  C   UNL     1      -5.860   2.272 -14.354  1.00  0.00    +0.072 C 
ATOM     18  O   UNL     1      -6.673   2.660 -18.076  1.00  0.00    -0.254 OA
ATOM     19  C   UNL     1      -5.288   2.251 -15.773  1.00  0.00    +0.117 C 
BRANCH  13  20
ATOM     20  N   UNL     1     -10.462   1.878 -12.856  1.00  0.00    -0.341 N 
ATOM     21  C   UNL     1     -11.807   2.395 -13.128  1.00  0.00    +0.120 C 
ATOM     22  C   UNL     1     -10.378   0.480 -12.423  1.00  0.00    +0.120 C 
ATOM     23  C   UNL     1     -12.724   2.162 -11.930  1.00  0.00    +0.033 C 
ATOM     24  C   UNL     1     -11.286   0.237 -11.220  1.00  0.00    +0.033 C 
ATOM     25  C   UNL     1     -12.717   0.688 -11.521  1.00  0.00    +0.061 C 
BRANCH  25  26
ATOM     26  C   UNL     1     -13.632   0.441 -10.347  1.00  0.00    +0.131 A 
ATOM     27  N   UNL     1     -14.443   1.452  -9.971  1.00  0.00    -0.240 NA
ATOM     28  N   UNL     1     -13.591  -0.763  -9.739  1.00  0.00    -0.240 NA
ATOM     29  C   UNL     1     -15.253   1.217  -8.914  1.00  0.00    +0.135 A 
ATOM     30  C   UNL     1     -14.422  -0.941  -8.687  1.00  0.00    +0.135 A 
ATOM     31  C   UNL     1     -15.283   0.027  -8.227  1.00  0.00    +0.077 A 
ATOM     32 Cl   UNL     1     -16.321  -0.233  -6.894  1.00  0.00    -0.081 Cl
ENDBRANCH  25  26
ENDBRANCH  13  20
ENDBRANCH   1  10
TORSDOF 6
ENDMDL
MODEL 9
REMARK VINA RESULT:    -7.382      5.159      9.285
REMARK INTER + INTRA:         -10.889
REMARK INTER:                 -10.252
REMARK INTRA:                  -0.636
REMARK UNBOUND:                -1.133
REMARK SMILES O=[S@@]1CCc2nc(N3CCC(c4ncc(Cl)cn4)CC3)nc(NC3(CO)CCC3)c21
REMARK SMILES IDX 23 1 24 3 28 4 27 5 29 6 25 7 26 8 22 10 21 11 30 12 7 13
REMARK SMILES IDX 5 14 2 15 6 16 4 17 1 18 3 19 8 20 9 21 20 22 10 23 19 24
REMARK SMILES IDX 11 25 12 26 13 27 18 28 14 29 17 30 15 31 16 32
REMARK H PARENT 23 2 26 9
ROOT
ATOM      1  N   UNL     1     -11.964  -0.816 -11.122  1.00  0.00    -0.361 N 
ATOM      2  H   UNL     1     -11.838  -1.760 -10.739  1.00  0.00    +0.162 HD
ENDROOT
BRANCH   1   3
ATOM      3  C   UNL     1     -12.635   0.069 -10.188  1.00  0.00    +0.062 C 
ATOM      4  C   UNL     1     -12.887   0.193  -8.053  1.00  0.00    +0.005 C 
ATOM      5  C   UNL     1     -13.427  -0.768  -9.131  1.00  0.00    +0.031 C 
ATOM      6  C   UNL     1     -11.722   0.517  -9.008  1.00  0.00    +0.031 C 
BRANCH   3   7
ATOM      7  C   UNL     1     -13.508   1.120 -10.888  1.00  0.00    +0.184 C 
BRANCH   7   8
ATOM      8  O   UNL     1     -14.888   0.772 -10.838  1.00  0.00    -0.394 OA
ATOM      9  H   UNL     1     -15.224   1.102  -9.978  1.00  0.00    +0.210 HD
ENDBRANCH   7   8
ENDBRANCH   3   7
ENDBRANCH   1   3
BRANCH   1  10
ATOM     10  C   UNL     1     -10.787  -0.498 -11.843  1.00  0.00    +0.148 A 
ATOM     11  N   UNL     1     -10.830   0.425 -12.826  1.00  0.00    -0.194 NA
ATOM     12  C   UNL     1      -9.622  -1.173 -11.583  1.00  0.00    +0.103 A 
ATOM     13  C   UNL     1      -9.701   0.729 -13.510  1.00  0.00    +0.227 A 
ATOM     14  C   UNL     1      -8.515  -0.813 -12.306  1.00  0.00    +0.065 A 
ATOM     15  S   UNL     1      -9.303  -2.435 -10.377  1.00  0.00    +0.059 S 
ATOM     16  N   UNL     1      -8.525   0.118 -13.269  1.00  0.00    -0.217 NA
ATOM     17  C   UNL     1      -7.274  -1.583 -11.951  1.00  0.00    +0.072 C 
ATOM     18  O   UNL     1      -9.796  -1.857  -9.082  1.00  0.00    -0.254 OA
ATOM     19  C   UNL     1      -7.503  -2.087 -10.525  1.00  0.00    +0.117 C 
BRANCH  13  20
ATOM     20  N   UNL     1      -9.769   1.693 -14.524  1.00  0.00    -0.341 N 
ATOM     21  C   UNL     1     -10.140   3.028 -14.041  1.00  0.00    +0.120 C 
ATOM     22  C   UNL     1      -8.656   1.632 -15.475  1.00  0.00    +0.120 C 
ATOM     23  C   UNL     1     -10.401   3.969 -15.213  1.00  0.00    +0.033 C 
ATOM     24  C   UNL     1      -8.910   2.565 -16.657  1.00  0.00    +0.033 C 
ATOM     25  C   UNL     1      -9.208   3.985 -16.171  1.00  0.00    +0.061 C 
BRANCH  25  26
ATOM     26  C   UNL     1      -9.447   4.925 -17.327  1.00  0.00    +0.131 A 
ATOM     27  N   UNL     1      -8.414   5.146 -18.169  1.00  0.00    -0.240 NA
ATOM     28  N   UNL     1     -10.663   5.493 -17.457  1.00  0.00    -0.240 NA
ATOM     29  C   UNL     1      -8.643   5.996 -19.196  1.00  0.00    +0.135 A 
ATOM     30  C   UNL     1     -10.833   6.334 -18.501  1.00  0.00    +0.135 A 
ATOM     31  C   UNL     1      -9.845   6.625 -19.411  1.00  0.00    +0.077 A 
ATOM     32 Cl   UNL     1     -10.095   7.694 -20.722  1.00  0.00    -0.081 Cl
ENDBRANCH  25  26
ENDBRANCH  13  20
ENDBRANCH   1  10
TORSDOF 6
ENDMDL
MODEL 10
REMARK VINA RESULT:    -7.282      5.558      8.487
REMARK INTER + INTRA:         -10.756
REMARK INTER:                  -9.898
REMARK INTRA:                  -0.858
REMARK UNBOUND:                -1.133
REMARK SMILES O=[S@@]1CCc2nc(N3CCC(c4ncc(Cl)cn4)CC3)nc(NC3(CO)CCC3)c21
REMARK SMILES IDX 23 1 24 3 28 4 27 5 29 6 25 7 26 8 22 10 21 11 30 12 7 13
REMARK SMILES IDX 5 14 2 15 6 16 4 17 1 18 3 19 8 20 9 21 20 22 10 23 19 24
REMARK SMILES IDX 11 25 12 26 13 27 18 28 14 29 17 30 15 31 16 32
REMARK H PARENT 23 2 26 9
ROOT
ATOM      1  N   UNL     1      -5.406  -2.413 -15.796  1.00  0.00    -0.361 N 
ATOM      2  H   UNL     1      -6.041  -2.694 -16.552  1.00  0.00    +0.162 HD
ENDROOT
BRANCH   1   3
ATOM      3  C   UNL     1      -4.024  -2.361 -16.233  1.00  0.00    +0.062 C 
ATOM      4  C   UNL     1      -2.128  -3.105 -15.530  1.00  0.00    +0.005 C 
ATOM      5  C   UNL     1      -3.092  -2.012 -15.027  1.00  0.00    +0.031 C 
ATOM      6  C   UNL     1      -3.332  -3.756 -16.239  1.00  0.00    +0.031 C 
BRANCH   3   7
ATOM      7  C   UNL     1      -3.816  -1.426 -17.433  1.00  0.00    +0.184 C 
BRANCH   7   8
ATOM      8  O   UNL     1      -5.051  -1.095 -18.060  1.00  0.00    -0.394 OA
ATOM      9  H   UNL     1      -5.123  -1.674 -18.849  1.00  0.00    +0.210 HD
ENDBRANCH   7   8
ENDBRANCH   3   7
ENDBRANCH   1   3
BRANCH   1  10
ATOM     10  C   UNL     1      -6.064  -1.405 -15.051  1.00  0.00    +0.148 A 
ATOM     11  N   UNL     1      -6.399  -0.241 -15.645  1.00  0.00    -0.194 NA
ATOM     12  C   UNL     1      -6.304  -1.589 -13.713  1.00  0.00    +0.103 A 
ATOM     13  C   UNL     1      -7.033   0.719 -14.930  1.00  0.00    +0.227 A 
ATOM     14  C   UNL     1      -6.954  -0.582 -13.049  1.00  0.00    +0.065 A 
ATOM     15  S   UNL     1      -5.946  -2.996 -12.694  1.00  0.00    +0.059 S 
ATOM     16  N   UNL     1      -7.320   0.572 -13.622  1.00  0.00    -0.217 NA
ATOM     17  C   UNL     1      -7.197  -0.865 -11.593  1.00  0.00    +0.072 C 
ATOM     18  O   UNL     1      -6.542  -4.161 -13.430  1.00  0.00    -0.254 OA
ATOM     19  C   UNL     1      -7.174  -2.390 -11.467  1.00  0.00    +0.117 C 
BRANCH  13  20
ATOM     20  N   UNL     1      -7.375   1.918 -15.569  1.00  0.00    -0.341 N 
ATOM     21  C   UNL     1      -7.020   1.946 -16.992  1.00  0.00    +0.120 C 
ATOM     22  C   UNL     1      -8.708   2.415 -15.221  1.00  0.00    +0.120 C 
ATOM     23  C   UNL     1      -7.224   3.344 -17.567  1.00  0.00    +0.033 C 
ATOM     24  C   UNL     1      -8.920   3.818 -15.785  1.00  0.00    +0.033 C 
ATOM     25  C   UNL     1      -8.643   3.844 -17.290  1.00  0.00    +0.061 C 
BRANCH  25  26
ATOM     26  C   UNL     1      -8.862   5.220 -17.868  1.00  0.00    +0.131 A 
ATOM     27  N   UNL     1      -9.376   6.161 -17.048  1.00  0.00    -0.240 NA
ATOM     28  N   UNL     1      -8.542   5.435 -19.160  1.00  0.00    -0.240 NA
ATOM     29  C   UNL     1      -9.573   7.388 -17.584  1.00  0.00    +0.135 A 
ATOM     30  C   UNL     1      -8.760   6.680 -19.642  1.00  0.00    +0.135 A 
ATOM     31  C   UNL     1      -9.281   7.705 -18.889  1.00  0.00    +0.077 A 
ATOM     32 Cl   UNL     1      -9.544   9.268 -19.529  1.00  0.00    -0.081 Cl
ENDBRANCH  25  26
ENDBRANCH  13  20
ENDBRANCH   1  10
TORSDOF 6
ENDMDL
