MODEL 1
REMARK VINA RESULT:   -11.735      0.000      0.000
REMARK INTER + INTRA:         -16.983
REMARK INTER:                 -16.538
REMARK INTRA:                  -0.445
REMARK UNBOUND:                -0.445
REMARK SMILES Cc1ccc(NC(=O)c2ccc(CN3CCN(C)CC3)cc2)cc1Nc1nccc(-c2cccnc2)n1
REMARK SMILES IDX 6 1 7 2 8 3 5 5 2 6 3 7 24 8 4 9 23 10 1 11 25 12 26 14
REMARK SMILES IDX 27 15 37 16 28 17 30 18 29 19 31 20 32 21 36 22 33 23 35 24
REMARK SMILES IDX 34 25 9 26 10 27 22 28 11 29 21 30 12 31 13 32 14 33 15 34
REMARK SMILES IDX 20 35 16 36 19 37 17 38 18 39
REMARK H PARENT 6 4 25 13
ROOT
ATOM      1  N   UNL     1     -39.212 157.611   3.339  1.00  0.00    -0.322 N 
ATOM      2  C   UNL     1     -37.846 157.463   3.192  1.00  0.00    +0.255 C 
ATOM      3  O   UNL     1     -37.124 158.043   2.390  1.00  0.00    -0.269 OA
ATOM      4  H   UNL     1     -39.642 157.161   4.138  1.00  0.00    +0.170 HD
ENDROOT
BRANCH   1   5
ATOM      5  C   UNL     1     -40.082 158.395   2.551  1.00  0.00    +0.043 A 
ATOM      6  C   UNL     1     -41.659 160.039   0.896  1.00  0.00    -0.027 A 
ATOM      7  C   UNL     1     -42.242 159.249   1.901  1.00  0.00    +0.008 A 
ATOM      8  C   UNL     1     -40.259 160.013   0.703  1.00  0.00    +0.046 A 
ATOM      9  C   UNL     1     -41.460 158.435   2.721  1.00  0.00    +0.026 A 
ATOM     10  C   UNL     1     -39.499 159.186   1.548  1.00  0.00    +0.052 A 
ATOM     11  C   UNL     1     -42.563 160.899   0.052  1.00  0.00    +0.046 C 
BRANCH   8  12
ATOM     12  N   UNL     1     -39.675 160.810  -0.293  1.00  0.00    -0.324 N 
ATOM     13  H   UNL     1     -39.395 161.742  -0.029  1.00  0.00    +0.170 HD
BRANCH  12  14
ATOM     14  C   UNL     1     -39.397 160.642  -1.646  1.00  0.00    +0.227 A 
ATOM     15  N   UNL     1     -39.341 159.435  -2.223  1.00  0.00    -0.221 NA
ATOM     16  N   UNL     1     -39.182 161.785  -2.318  1.00  0.00    -0.213 NA
ATOM     17  C   UNL     1     -39.057 159.392  -3.535  1.00  0.00    +0.117 A 
ATOM     18  C   UNL     1     -38.887 161.718  -3.637  1.00  0.00    +0.077 A 
ATOM     19  C   UNL     1     -38.819 160.508  -4.296  1.00  0.00    +0.049 A 
BRANCH  18  20
ATOM     20  C   UNL     1     -38.663 163.013  -4.304  1.00  0.00    +0.019 A 
ATOM     21  C   UNL     1     -38.351 163.094  -5.670  1.00  0.00    +0.013 A 
ATOM     22  C   UNL     1     -38.750 164.235  -3.634  1.00  0.00    +0.121 A 
ATOM     23  C   UNL     1     -38.136 164.328  -6.282  1.00  0.00    +0.021 A 
ATOM     24  N   UNL     1     -38.541 165.453  -4.194  1.00  0.00    -0.264 NA
ATOM     25  C   UNL     1     -38.239 165.470  -5.508  1.00  0.00    +0.111 A 
ENDBRANCH  18  20
ENDBRANCH  12  14
ENDBRANCH   8  12
ENDBRANCH   1   5
BRANCH   2  26
ATOM     26  C   UNL     1     -37.213 156.520   4.158  1.00  0.00    +0.040 A 
ATOM     27  C   UNL     1     -35.837 156.544   4.417  1.00  0.00    +0.014 A 
ATOM     28  C   UNL     1     -38.030 155.609   4.835  1.00  0.00    +0.014 A 
ATOM     29  C   UNL     1     -35.283 155.638   5.326  1.00  0.00    +0.006 A 
ATOM     30  C   UNL     1     -37.475 154.705   5.743  1.00  0.00    +0.006 A 
ATOM     31  C   UNL     1     -36.094 154.707   5.993  1.00  0.00    -0.034 A 
BRANCH  31  32
ATOM     32  C   UNL     1     -35.489 153.732   6.984  1.00  0.00    +0.120 C 
BRANCH  32  33
ATOM     33  N   UNL     1     -34.550 152.779   6.361  1.00  0.00    -0.297 NA
ATOM     34  C   UNL     1     -35.146 152.104   5.190  1.00  0.00    +0.100 C 
ATOM     35  C   UNL     1     -34.140 151.745   7.342  1.00  0.00    +0.100 C 
ATOM     36  C   UNL     1     -36.333 151.150   5.497  1.00  0.00    +0.099 C 
ATOM     37  C   UNL     1     -34.974 150.433   7.363  1.00  0.00    +0.099 C 
ATOM     38  N   UNL     1     -36.346 150.623   6.875  1.00  0.00    -0.304 NA
ATOM     39  C   UNL     1     -37.133 149.400   6.970  1.00  0.00    +0.105 C 
ENDBRANCH  32  33
ENDBRANCH  31  32
ENDBRANCH   2  26
TORSDOF 7
ENDMDL
MODEL 2
REMARK VINA RESULT:   -11.357      2.726     13.069
REMARK INTER + INTRA:         -16.449
REMARK INTER:                 -15.582
REMARK INTRA:                  -0.867
REMARK UNBOUND:                -0.445
REMARK SMILES Cc1ccc(NC(=O)c2ccc(CN3CCN(C)CC3)cc2)cc1Nc1nccc(-c2cccnc2)n1
REMARK SMILES IDX 6 1 7 2 8 3 5 5 2 6 3 7 24 8 4 9 23 10 1 11 25 12 26 14
REMARK SMILES IDX 27 15 37 16 28 17 30 18 29 19 31 20 32 21 36 22 33 23 35 24
REMARK SMILES IDX 34 25 9 26 10 27 22 28 11 29 21 30 12 31 13 32 14 33 15 34
REMARK SMILES IDX 20 35 16 36 19 37 17 38 18 39
REMARK H PARENT 6 4 25 13
ROOT
ATOM      1  N   UNL     1     -39.581 160.686  -1.906  1.00  0.00    -0.322 N 
ATOM      2  C   UNL     1     -39.241 162.011  -2.104  1.00  0.00    +0.255 C 
ATOM      3  O   UNL     1     -39.191 162.893  -1.255  1.00  0.00    -0.269 OA
ATOM      4  H   UNL     1     -39.443 160.053  -2.685  1.00  0.00    +0.170 HD
ENDROOT
BRANCH   1   5
ATOM      5  C   UNL     1     -40.022 160.080  -0.710  1.00  0.00    +0.043 A 
ATOM      6  C   UNL     1     -40.738 158.763   1.673  1.00  0.00    -0.027 A 
ATOM      7  C   UNL     1     -41.623 159.654   1.043  1.00  0.00    +0.008 A 
ATOM      8  C   UNL     1     -39.464 158.520   1.111  1.00  0.00    +0.046 A 
ATOM      9  C   UNL     1     -41.267 160.306  -0.139  1.00  0.00    +0.026 A 
ATOM     10  C   UNL     1     -39.138 159.188  -0.082  1.00  0.00    +0.052 A 
ATOM     11  C   UNL     1     -41.190 158.089   2.942  1.00  0.00    +0.046 C 
BRANCH   8  12
ATOM     12  N   UNL     1     -38.584 157.621   1.734  1.00  0.00    -0.324 N 
ATOM     13  H   UNL     1     -38.302 156.812   1.202  1.00  0.00    +0.170 HD
BRANCH  12  14
ATOM     14  C   UNL     1     -37.993 157.540   2.990  1.00  0.00    +0.227 A 
ATOM     15  N   UNL     1     -37.517 158.615   3.631  1.00  0.00    -0.221 NA
ATOM     16  N   UNL     1     -37.933 156.299   3.501  1.00  0.00    -0.213 NA
ATOM     17  C   UNL     1     -36.959 158.418   4.836  1.00  0.00    +0.117 A 
ATOM     18  C   UNL     1     -37.358 156.121   4.713  1.00  0.00    +0.077 A 
ATOM     19  C   UNL     1     -36.852 157.186   5.429  1.00  0.00    +0.049 A 
BRANCH  18  20
ATOM     20  C   UNL     1     -37.328 154.732   5.203  1.00  0.00    +0.019 A 
ATOM     21  C   UNL     1     -36.819 154.409   6.471  1.00  0.00    +0.013 A 
ATOM     22  C   UNL     1     -37.804 153.654   4.455  1.00  0.00    +0.121 A 
ATOM     23  C   UNL     1     -36.793 153.088   6.916  1.00  0.00    +0.021 A 
ATOM     24  N   UNL     1     -37.788 152.356   4.851  1.00  0.00    -0.264 NA
ATOM     25  C   UNL     1     -37.283 152.104   6.075  1.00  0.00    +0.111 A 
ENDBRANCH  18  20
ENDBRANCH  12  14
ENDBRANCH   8  12
ENDBRANCH   1   5
BRANCH   2  26
ATOM     26  C   UNL     1     -38.858 162.355  -3.503  1.00  0.00    +0.040 A 
ATOM     27  C   UNL     1     -38.567 161.367  -4.452  1.00  0.00    +0.014 A 
ATOM     28  C   UNL     1     -38.818 163.704  -3.872  1.00  0.00    +0.014 A 
ATOM     29  C   UNL     1     -38.208 161.733  -5.751  1.00  0.00    +0.006 A 
ATOM     30  C   UNL     1     -38.458 164.067  -5.172  1.00  0.00    +0.006 A 
ATOM     31  C   UNL     1     -38.143 163.085  -6.123  1.00  0.00    -0.034 A 
BRANCH  31  32
ATOM     32  C   UNL     1     -37.760 163.476  -7.537  1.00  0.00    +0.120 C 
BRANCH  32  33
ATOM     33  N   UNL     1     -37.982 162.395  -8.518  1.00  0.00    -0.297 NA
ATOM     34  C   UNL     1     -36.710 161.874  -9.060  1.00  0.00    +0.100 C 
ATOM     35  C   UNL     1     -38.809 162.887  -9.646  1.00  0.00    +0.100 C 
ATOM     36  C   UNL     1     -35.897 162.867  -9.933  1.00  0.00    +0.099 C 
ATOM     37  C   UNL     1     -38.045 163.434 -10.885  1.00  0.00    +0.099 C 
ATOM     38  N   UNL     1     -36.705 163.935 -10.552  1.00  0.00    -0.304 NA
ATOM     39  C   UNL     1     -36.033 164.509 -11.711  1.00  0.00    +0.105 C 
ENDBRANCH  32  33
ENDBRANCH  31  32
ENDBRANCH   2  26
TORSDOF 7
ENDMDL
MODEL 3
REMARK VINA RESULT:   -11.065      1.116      1.667
REMARK INTER + INTRA:         -16.039
REMARK INTER:                 -15.520
REMARK INTRA:                  -0.518
REMARK UNBOUND:                -0.445
REMARK SMILES Cc1ccc(NC(=O)c2ccc(CN3CCN(C)CC3)cc2)cc1Nc1nccc(-c2cccnc2)n1
REMARK SMILES IDX 6 1 7 2 8 3 5 5 2 6 3 7 24 8 4 9 23 10 1 11 25 12 26 14
REMARK SMILES IDX 27 15 37 16 28 17 30 18 29 19 31 20 32 21 36 22 33 23 35 24
REMARK SMILES IDX 34 25 9 26 10 27 22 28 11 29 21 30 12 31 13 32 14 33 15 34
REMARK SMILES IDX 20 35 16 36 19 37 17 38 18 39
REMARK H PARENT 6 4 25 13
ROOT
ATOM      1  N   UNL     1     -39.170 157.603   3.091  1.00  0.00    -0.322 N 
ATOM      2  C   UNL     1     -37.789 157.622   3.137  1.00  0.00    +0.255 C 
ATOM      3  O   UNL     1     -37.041 158.355   2.503  1.00  0.00    -0.269 OA
ATOM      4  H   UNL     1     -39.647 157.031   3.778  1.00  0.00    +0.170 HD
ENDROOT
BRANCH   1   5
ATOM      5  C   UNL     1     -40.013 158.361   2.250  1.00  0.00    +0.043 A 
ATOM      6  C   UNL     1     -41.537 159.910   0.460  1.00  0.00    -0.027 A 
ATOM      7  C   UNL     1     -42.096 159.420   1.653  1.00  0.00    +0.008 A 
ATOM      8  C   UNL     1     -40.190 159.623   0.143  1.00  0.00    +0.046 A 
ATOM      9  C   UNL     1     -41.339 158.653   2.540  1.00  0.00    +0.026 A 
ATOM     10  C   UNL     1     -39.454 158.852   1.059  1.00  0.00    +0.052 A 
ATOM     11  C   UNL     1     -42.410 160.737  -0.447  1.00  0.00    +0.046 C 
BRANCH   8  12
ATOM     12  N   UNL     1     -39.629 160.122  -1.042  1.00  0.00    -0.324 N 
ATOM     13  H   UNL     1     -39.379 159.450  -1.750  1.00  0.00    +0.170 HD
BRANCH  12  14
ATOM     14  C   UNL     1     -39.276 161.387  -1.502  1.00  0.00    +0.227 A 
ATOM     15  N   UNL     1     -39.164 162.443  -0.688  1.00  0.00    -0.221 NA
ATOM     16  N   UNL     1     -39.065 161.460  -2.828  1.00  0.00    -0.213 NA
ATOM     17  C   UNL     1     -38.825 163.617  -1.243  1.00  0.00    +0.117 A 
ATOM     18  C   UNL     1     -38.734 162.655  -3.368  1.00  0.00    +0.077 A 
ATOM     19  C   UNL     1     -38.597 163.783  -2.586  1.00  0.00    +0.049 A 
BRANCH  18  20
ATOM     20  C   UNL     1     -38.523 162.655  -4.826  1.00  0.00    +0.019 A 
ATOM     21  C   UNL     1     -38.432 163.849  -5.558  1.00  0.00    +0.013 A 
ATOM     22  C   UNL     1     -38.392 161.482  -5.573  1.00  0.00    +0.121 A 
ATOM     23  C   UNL     1     -38.238 163.829  -6.939  1.00  0.00    +0.021 A 
ATOM     24  N   UNL     1     -38.209 161.424  -6.917  1.00  0.00    -0.264 NA
ATOM     25  C   UNL     1     -38.136 162.602  -7.568  1.00  0.00    +0.111 A 
ENDBRANCH  18  20
ENDBRANCH  12  14
ENDBRANCH   8  12
ENDBRANCH   1   5
BRANCH   2  26
ATOM     26  C   UNL     1     -37.184 156.662   4.105  1.00  0.00    +0.040 A 
ATOM     27  C   UNL     1     -35.816 156.681   4.405  1.00  0.00    +0.014 A 
ATOM     28  C   UNL     1     -38.021 155.740   4.743  1.00  0.00    +0.014 A 
ATOM     29  C   UNL     1     -35.289 155.761   5.314  1.00  0.00    +0.006 A 
ATOM     30  C   UNL     1     -37.492 154.821   5.652  1.00  0.00    +0.006 A 
ATOM     31  C   UNL     1     -36.119 154.818   5.942  1.00  0.00    -0.034 A 
BRANCH  31  32
ATOM     32  C   UNL     1     -35.543 153.827   6.934  1.00  0.00    +0.120 C 
BRANCH  32  33
ATOM     33  N   UNL     1     -34.568 152.899   6.327  1.00  0.00    -0.297 NA
ATOM     34  C   UNL     1     -35.152 152.150   5.195  1.00  0.00    +0.100 C 
ATOM     35  C   UNL     1     -34.087 151.926   7.337  1.00  0.00    +0.100 C 
ATOM     36  C   UNL     1     -36.283 151.151   5.563  1.00  0.00    +0.099 C 
ATOM     37  C   UNL     1     -34.853 150.575   7.426  1.00  0.00    +0.099 C 
ATOM     38  N   UNL     1     -36.242 150.677   6.960  1.00  0.00    -0.304 NA
ATOM     39  C   UNL     1     -36.964 149.421   7.117  1.00  0.00    +0.105 C 
ENDBRANCH  32  33
ENDBRANCH  31  32
ENDBRANCH   2  26
TORSDOF 7
ENDMDL
MODEL 4
REMARK VINA RESULT:   -10.198      2.190     12.724
REMARK INTER + INTRA:         -14.817
REMARK INTER:                 -14.276
REMARK INTRA:                  -0.541
REMARK UNBOUND:                -0.445
REMARK SMILES Cc1ccc(NC(=O)c2ccc(CN3CCN(C)CC3)cc2)cc1Nc1nccc(-c2cccnc2)n1
REMARK SMILES IDX 6 1 7 2 8 3 5 5 2 6 3 7 24 8 4 9 23 10 1 11 25 12 26 14
REMARK SMILES IDX 27 15 37 16 28 17 30 18 29 19 31 20 32 21 36 22 33 23 35 24
REMARK SMILES IDX 34 25 9 26 10 27 22 28 11 29 21 30 12 31 13 32 14 33 15 34
REMARK SMILES IDX 20 35 16 36 19 37 17 38 18 39
REMARK H PARENT 6 4 25 13
ROOT
ATOM      1  N   UNL     1     -37.384 158.028   2.507  1.00  0.00    -0.322 N 
ATOM      2  C   UNL     1     -38.585 158.230   1.853  1.00  0.00    +0.255 C 
ATOM      3  O   UNL     1     -39.709 158.063   2.310  1.00  0.00    -0.269 OA
ATOM      4  H   UNL     1     -36.544 158.342   2.035  1.00  0.00    +0.170 HD
ENDROOT
BRANCH   1   5
ATOM      5  C   UNL     1     -37.187 157.512   3.806  1.00  0.00    +0.043 A 
ATOM      6  C   UNL     1     -36.900 156.326   6.342  1.00  0.00    -0.027 A 
ATOM      7  C   UNL     1     -36.441 157.631   6.096  1.00  0.00    +0.008 A 
ATOM      8  C   UNL     1     -37.515 155.588   5.306  1.00  0.00    +0.046 A 
ATOM      9  C   UNL     1     -36.584 158.218   4.838  1.00  0.00    +0.026 A 
ATOM     10  C   UNL     1     -37.649 156.209   4.052  1.00  0.00    +0.052 A 
ATOM     11  C   UNL     1     -36.719 155.757   7.726  1.00  0.00    +0.046 C 
BRANCH   8  12
ATOM     12  N   UNL     1     -37.985 154.289   5.555  1.00  0.00    -0.324 N 
ATOM     13  H   UNL     1     -38.959 154.192   5.798  1.00  0.00    +0.170 HD
BRANCH  12  14
ATOM     14  C   UNL     1     -37.403 153.026   5.587  1.00  0.00    +0.227 A 
ATOM     15  N   UNL     1     -36.076 152.846   5.595  1.00  0.00    -0.221 NA
ATOM     16  N   UNL     1     -38.279 152.007   5.602  1.00  0.00    -0.213 NA
ATOM     17  C   UNL     1     -35.626 151.581   5.618  1.00  0.00    +0.117 A 
ATOM     18  C   UNL     1     -37.803 150.740   5.616  1.00  0.00    +0.077 A 
ATOM     19  C   UNL     1     -36.448 150.483   5.629  1.00  0.00    +0.049 A 
BRANCH  18  20
ATOM     20  C   UNL     1     -38.825 149.679   5.629  1.00  0.00    +0.019 A 
ATOM     21  C   UNL     1     -38.771 148.593   4.742  1.00  0.00    +0.013 A 
ATOM     22  C   UNL     1     -39.902 149.675   6.518  1.00  0.00    +0.121 A 
ATOM     23  C   UNL     1     -39.751 147.601   4.764  1.00  0.00    +0.021 A 
ATOM     24  N   UNL     1     -40.877 148.732   6.565  1.00  0.00    -0.264 NA
ATOM     25  C   UNL     1     -40.777 147.716   5.685  1.00  0.00    +0.111 A 
ENDBRANCH  18  20
ENDBRANCH  12  14
ENDBRANCH   8  12
ENDBRANCH   1   5
BRANCH   2  26
ATOM     26  C   UNL     1     -38.459 158.746   0.460  1.00  0.00    +0.040 A 
ATOM     27  C   UNL     1     -38.570 157.902  -0.652  1.00  0.00    +0.014 A 
ATOM     28  C   UNL     1     -38.248 160.116   0.272  1.00  0.00    +0.014 A 
ATOM     29  C   UNL     1     -38.440 158.427  -1.940  1.00  0.00    +0.006 A 
ATOM     30  C   UNL     1     -38.117 160.638  -1.016  1.00  0.00    +0.006 A 
ATOM     31  C   UNL     1     -38.206 159.797  -2.136  1.00  0.00    -0.034 A 
BRANCH  31  32
ATOM     32  C   UNL     1     -38.073 160.362  -3.537  1.00  0.00    +0.120 C 
BRANCH  32  33
ATOM     33  N   UNL     1     -39.299 161.036  -4.009  1.00  0.00    -0.297 NA
ATOM     34  C   UNL     1     -39.252 161.310  -5.460  1.00  0.00    +0.100 C 
ATOM     35  C   UNL     1     -39.486 162.321  -3.293  1.00  0.00    +0.100 C 
ATOM     36  C   UNL     1     -38.185 162.342  -5.914  1.00  0.00    +0.099 C 
ATOM     37  C   UNL     1     -38.896 163.590  -3.970  1.00  0.00    +0.099 C 
ATOM     38  N   UNL     1     -37.769 163.288  -4.861  1.00  0.00    -0.304 NA
ATOM     39  C   UNL     1     -37.184 164.496  -5.430  1.00  0.00    +0.105 C 
ENDBRANCH  32  33
ENDBRANCH  31  32
ENDBRANCH   2  26
TORSDOF 7
ENDMDL
MODEL 5
REMARK VINA RESULT:    -9.989      3.958      6.417
REMARK INTER + INTRA:         -14.522
REMARK INTER:                 -13.724
REMARK INTRA:                  -0.798
REMARK UNBOUND:                -0.445
REMARK SMILES Cc1ccc(NC(=O)c2ccc(CN3CCN(C)CC3)cc2)cc1Nc1nccc(-c2cccnc2)n1
REMARK SMILES IDX 6 1 7 2 8 3 5 5 2 6 3 7 24 8 4 9 23 10 1 11 25 12 26 14
REMARK SMILES IDX 27 15 37 16 28 17 30 18 29 19 31 20 32 21 36 22 33 23 35 24
REMARK SMILES IDX 34 25 9 26 10 27 22 28 11 29 21 30 12 31 13 32 14 33 15 34
REMARK SMILES IDX 20 35 16 36 19 37 17 38 18 39
REMARK H PARENT 6 4 25 13
ROOT
ATOM      1  N   UNL     1     -37.723 153.398   4.403  1.00  0.00    -0.322 N 
ATOM      2  C   UNL     1     -38.047 152.366   5.263  1.00  0.00    +0.255 C 
ATOM      3  O   UNL     1     -38.238 152.446   6.470  1.00  0.00    -0.269 OA
ATOM      4  H   UNL     1     -37.731 153.192   3.411  1.00  0.00    +0.170 HD
ENDROOT
BRANCH   1   5
ATOM      5  C   UNL     1     -37.463 154.745   4.735  1.00  0.00    +0.043 A 
ATOM      6  C   UNL     1     -36.990 157.479   5.212  1.00  0.00    -0.027 A 
ATOM      7  C   UNL     1     -36.709 156.513   6.193  1.00  0.00    +0.008 A 
ATOM      8  C   UNL     1     -37.522 157.083   3.964  1.00  0.00    +0.046 A 
ATOM      9  C   UNL     1     -36.944 155.158   5.955  1.00  0.00    +0.026 A 
ATOM     10  C   UNL     1     -37.742 155.711   3.754  1.00  0.00    +0.052 A 
ATOM     11  C   UNL     1     -36.706 158.923   5.535  1.00  0.00    +0.046 C 
BRANCH   8  12
ATOM     12  N   UNL     1     -37.791 158.047   2.981  1.00  0.00    -0.324 N 
ATOM     13  H   UNL     1     -37.014 158.599   2.654  1.00  0.00    +0.170 HD
BRANCH  12  14
ATOM     14  C   UNL     1     -38.938 158.485   2.326  1.00  0.00    +0.227 A 
ATOM     15  N   UNL     1     -40.158 158.382   2.867  1.00  0.00    -0.221 NA
ATOM     16  N   UNL     1     -38.720 159.008   1.108  1.00  0.00    -0.213 NA
ATOM     17  C   UNL     1     -41.195 158.830   2.141  1.00  0.00    +0.117 A 
ATOM     18  C   UNL     1     -39.780 159.444   0.388  1.00  0.00    +0.077 A 
ATOM     19  C   UNL     1     -41.064 159.374   0.888  1.00  0.00    +0.049 A 
BRANCH  18  20
ATOM     20  C   UNL     1     -39.461 160.002  -0.937  1.00  0.00    +0.019 A 
ATOM     21  C   UNL     1     -38.961 159.199  -1.974  1.00  0.00    +0.013 A 
ATOM     22  C   UNL     1     -39.637 161.351  -1.254  1.00  0.00    +0.121 A 
ATOM     23  C   UNL     1     -38.658 159.746  -3.221  1.00  0.00    +0.021 A 
ATOM     24  N   UNL     1     -39.347 161.919  -2.452  1.00  0.00    -0.264 NA
ATOM     25  C   UNL     1     -38.865 161.101  -3.409  1.00  0.00    +0.111 A 
ENDBRANCH  18  20
ENDBRANCH  12  14
ENDBRANCH   8  12
ENDBRANCH   1   5
BRANCH   2  26
ATOM     26  C   UNL     1     -38.213 151.037   4.608  1.00  0.00    +0.040 A 
ATOM     27  C   UNL     1     -39.173 150.823   3.610  1.00  0.00    +0.014 A 
ATOM     28  C   UNL     1     -37.367 149.992   4.992  1.00  0.00    +0.014 A 
ATOM     29  C   UNL     1     -39.299 149.560   3.025  1.00  0.00    +0.006 A 
ATOM     30  C   UNL     1     -37.495 148.731   4.406  1.00  0.00    +0.006 A 
ATOM     31  C   UNL     1     -38.467 148.501   3.421  1.00  0.00    -0.034 A 
BRANCH  31  32
ATOM     32  C   UNL     1     -38.604 147.134   2.777  1.00  0.00    +0.120 C 
BRANCH  32  33
ATOM     33  N   UNL     1     -37.371 146.686   2.101  1.00  0.00    -0.297 NA
ATOM     34  C   UNL     1     -36.990 147.589   0.995  1.00  0.00    +0.100 C 
ATOM     35  C   UNL     1     -37.554 145.320   1.552  1.00  0.00    +0.100 C 
ATOM     36  C   UNL     1     -37.965 147.619  -0.213  1.00  0.00    +0.099 C 
ATOM     37  C   UNL     1     -38.033 145.220   0.076  1.00  0.00    +0.099 C 
ATOM     38  N   UNL     1     -38.787 146.402  -0.360  1.00  0.00    -0.304 NA
ATOM     39  C   UNL     1     -39.289 146.259  -1.721  1.00  0.00    +0.105 C 
ENDBRANCH  32  33
ENDBRANCH  31  32
ENDBRANCH   2  26
TORSDOF 7
ENDMDL
MODEL 6
REMARK VINA RESULT:    -9.979      2.867      5.807
REMARK INTER + INTRA:         -14.508
REMARK INTER:                 -13.934
REMARK INTRA:                  -0.574
REMARK UNBOUND:                -0.445
REMARK SMILES Cc1ccc(NC(=O)c2ccc(CN3CCN(C)CC3)cc2)cc1Nc1nccc(-c2cccnc2)n1
REMARK SMILES IDX 6 1 7 2 8 3 5 5 2 6 3 7 24 8 4 9 23 10 1 11 25 12 26 14
REMARK SMILES IDX 27 15 37 16 28 17 30 18 29 19 31 20 32 21 36 22 33 23 35 24
REMARK SMILES IDX 34 25 9 26 10 27 22 28 11 29 21 30 12 31 13 32 14 33 15 34
REMARK SMILES IDX 20 35 16 36 19 37 17 38 18 39
REMARK H PARENT 6 4 25 13
ROOT
ATOM      1  N   UNL     1     -38.648 161.145  -0.841  1.00  0.00    -0.322 N 
ATOM      2  C   UNL     1     -39.671 160.670  -0.041  1.00  0.00    +0.255 C 
ATOM      3  O   UNL     1     -40.846 161.016  -0.064  1.00  0.00    -0.269 OA
ATOM      4  H   UNL     1     -37.761 160.660  -0.792  1.00  0.00    +0.170 HD
ENDROOT
BRANCH   1   5
ATOM      5  C   UNL     1     -38.715 162.183  -1.795  1.00  0.00    +0.043 A 
ATOM      6  C   UNL     1     -38.841 164.116  -3.839  1.00  0.00    -0.027 A 
ATOM      7  C   UNL     1     -38.715 164.492  -2.491  1.00  0.00    +0.008 A 
ATOM      8  C   UNL     1     -38.909 162.747  -4.184  1.00  0.00    +0.046 A 
ATOM      9  C   UNL     1     -38.652 163.534  -1.479  1.00  0.00    +0.026 A 
ATOM     10  C   UNL     1     -38.839 161.806  -3.142  1.00  0.00    +0.052 A 
ATOM     11  C   UNL     1     -38.896 165.203  -4.880  1.00  0.00    +0.046 C 
BRANCH   8  12
ATOM     12  N   UNL     1     -39.023 162.370  -5.531  1.00  0.00    -0.324 N 
ATOM     13  H   UNL     1     -39.929 162.058  -5.846  1.00  0.00    +0.170 HD
BRANCH  12  14
ATOM     14  C   UNL     1     -38.139 162.280  -6.602  1.00  0.00    +0.227 A 
ATOM     15  N   UNL     1     -37.274 161.267  -6.737  1.00  0.00    -0.221 NA
ATOM     16  N   UNL     1     -38.220 163.294  -7.480  1.00  0.00    -0.213 NA
ATOM     17  C   UNL     1     -36.462 161.288  -7.806  1.00  0.00    +0.117 A 
ATOM     18  C   UNL     1     -37.386 163.300  -8.545  1.00  0.00    +0.077 A 
ATOM     19  C   UNL     1     -36.474 162.285  -8.748  1.00  0.00    +0.049 A 
BRANCH  18  20
ATOM     20  C   UNL     1     -37.534 164.446  -9.460  1.00  0.00    +0.019 A 
ATOM     21  C   UNL     1     -37.156 164.365 -10.809  1.00  0.00    +0.013 A 
ATOM     22  C   UNL     1     -38.060 165.674  -9.057  1.00  0.00    +0.121 A 
ATOM     23  C   UNL     1     -37.297 165.461 -11.659  1.00  0.00    +0.021 A 
ATOM     24  N   UNL     1     -38.206 166.764  -9.853  1.00  0.00    -0.264 NA
ATOM     25  C   UNL     1     -37.821 166.630 -11.137  1.00  0.00    +0.111 A 
ENDBRANCH  18  20
ENDBRANCH  12  14
ENDBRANCH   8  12
ENDBRANCH   1   5
BRANCH   2  26
ATOM     26  C   UNL     1     -39.271 159.592   0.908  1.00  0.00    +0.040 A 
ATOM     27  C   UNL     1     -38.028 158.954   0.816  1.00  0.00    +0.014 A 
ATOM     28  C   UNL     1     -40.160 159.235   1.927  1.00  0.00    +0.014 A 
ATOM     29  C   UNL     1     -37.694 157.944   1.723  1.00  0.00    +0.006 A 
ATOM     30  C   UNL     1     -39.825 158.226   2.832  1.00  0.00    +0.006 A 
ATOM     31  C   UNL     1     -38.590 157.566   2.735  1.00  0.00    -0.034 A 
BRANCH  31  32
ATOM     32  C   UNL     1     -38.220 156.475   3.721  1.00  0.00    +0.120 C 
BRANCH  32  33
ATOM     33  N   UNL     1     -37.824 156.999   5.044  1.00  0.00    -0.297 NA
ATOM     34  C   UNL     1     -36.906 158.151   4.927  1.00  0.00    +0.100 C 
ATOM     35  C   UNL     1     -37.153 155.940   5.836  1.00  0.00    +0.100 C 
ATOM     36  C   UNL     1     -35.506 157.835   4.332  1.00  0.00    +0.099 C 
ATOM     37  C   UNL     1     -35.603 155.873   5.741  1.00  0.00    +0.099 C 
ATOM     38  N   UNL     1     -35.085 156.429   4.484  1.00  0.00    -0.304 NA
ATOM     39  C   UNL     1     -33.638 156.293   4.382  1.00  0.00    +0.105 C 
ENDBRANCH  32  33
ENDBRANCH  31  32
ENDBRANCH   2  26
TORSDOF 7
ENDMDL
MODEL 7
REMARK VINA RESULT:    -9.742      3.189      6.299
REMARK INTER + INTRA:         -14.174
REMARK INTER:                 -13.145
REMARK INTRA:                  -1.029
REMARK UNBOUND:                -0.445
REMARK SMILES Cc1ccc(NC(=O)c2ccc(CN3CCN(C)CC3)cc2)cc1Nc1nccc(-c2cccnc2)n1
REMARK SMILES IDX 6 1 7 2 8 3 5 5 2 6 3 7 24 8 4 9 23 10 1 11 25 12 26 14
REMARK SMILES IDX 27 15 37 16 28 17 30 18 29 19 31 20 32 21 36 22 33 23 35 24
REMARK SMILES IDX 34 25 9 26 10 27 22 28 11 29 21 30 12 31 13 32 14 33 15 34
REMARK SMILES IDX 20 35 16 36 19 37 17 38 18 39
REMARK H PARENT 6 4 25 13
ROOT
ATOM      1  N   UNL     1     -37.595 153.641   5.653  1.00  0.00    -0.322 N 
ATOM      2  C   UNL     1     -36.730 152.563   5.676  1.00  0.00    +0.255 C 
ATOM      3  O   UNL     1     -35.506 152.599   5.639  1.00  0.00    -0.269 OA
ATOM      4  H   UNL     1     -38.574 153.451   5.828  1.00  0.00    +0.170 HD
ENDROOT
BRANCH   1   5
ATOM      5  C   UNL     1     -37.265 155.005   5.501  1.00  0.00    +0.043 A 
ATOM      6  C   UNL     1     -36.666 157.712   5.010  1.00  0.00    -0.027 A 
ATOM      7  C   UNL     1     -36.330 157.105   6.232  1.00  0.00    +0.008 A 
ATOM      8  C   UNL     1     -37.318 156.961   4.006  1.00  0.00    +0.046 A 
ATOM      9  C   UNL     1     -36.627 155.763   6.473  1.00  0.00    +0.026 A 
ATOM     10  C   UNL     1     -37.599 155.611   4.278  1.00  0.00    +0.052 A 
ATOM     11  C   UNL     1     -36.309 159.162   4.814  1.00  0.00    +0.046 C 
BRANCH   8  12
ATOM     12  N   UNL     1     -37.643 157.564   2.781  1.00  0.00    -0.324 N 
ATOM     13  H   UNL     1     -36.913 157.618   2.088  1.00  0.00    +0.170 HD
BRANCH  12  14
ATOM     14  C   UNL     1     -38.779 158.174   2.260  1.00  0.00    +0.227 A 
ATOM     15  N   UNL     1     -39.953 158.175   2.903  1.00  0.00    -0.221 NA
ATOM     16  N   UNL     1     -38.602 158.753   1.060  1.00  0.00    -0.213 NA
ATOM     17  C   UNL     1     -40.985 158.788   2.302  1.00  0.00    +0.117 A 
ATOM     18  C   UNL     1     -39.659 159.357   0.468  1.00  0.00    +0.077 A 
ATOM     19  C   UNL     1     -40.895 159.399   1.077  1.00  0.00    +0.049 A 
BRANCH  18  20
ATOM     20  C   UNL     1     -39.386 159.966  -0.846  1.00  0.00    +0.019 A 
ATOM     21  C   UNL     1     -38.951 159.199  -1.938  1.00  0.00    +0.013 A 
ATOM     22  C   UNL     1     -39.547 161.330  -1.097  1.00  0.00    +0.121 A 
ATOM     23  C   UNL     1     -38.692 159.794  -3.172  1.00  0.00    +0.021 A 
ATOM     24  N   UNL     1     -39.298 161.945  -2.281  1.00  0.00    -0.264 NA
ATOM     25  C   UNL     1     -38.876 161.159  -3.292  1.00  0.00    +0.111 A 
ENDBRANCH  18  20
ENDBRANCH  12  14
ENDBRANCH   8  12
ENDBRANCH   1   5
BRANCH   2  26
ATOM     26  C   UNL     1     -37.393 151.233   5.803  1.00  0.00    +0.040 A 
ATOM     27  C   UNL     1     -38.787 151.101   5.783  1.00  0.00    +0.014 A 
ATOM     28  C   UNL     1     -36.590 150.094   5.920  1.00  0.00    +0.014 A 
ATOM     29  C   UNL     1     -39.369 149.837   5.910  1.00  0.00    +0.006 A 
ATOM     30  C   UNL     1     -37.173 148.832   6.048  1.00  0.00    +0.006 A 
ATOM     31  C   UNL     1     -38.569 148.691   6.050  1.00  0.00    -0.034 A 
BRANCH  31  32
ATOM     32  C   UNL     1     -39.206 147.321   6.180  1.00  0.00    +0.120 C 
BRANCH  32  33
ATOM     33  N   UNL     1     -40.322 147.289   7.146  1.00  0.00    -0.297 NA
ATOM     34  C   UNL     1     -40.094 146.298   8.218  1.00  0.00    +0.100 C 
ATOM     35  C   UNL     1     -41.590 146.953   6.456  1.00  0.00    +0.100 C 
ATOM     36  C   UNL     1     -40.085 144.813   7.768  1.00  0.00    +0.099 C 
ATOM     37  C   UNL     1     -41.987 145.450   6.418  1.00  0.00    +0.099 C 
ATOM     38  N   UNL     1     -40.828 144.553   6.520  1.00  0.00    -0.304 NA
ATOM     39  C   UNL     1     -41.212 143.151   6.410  1.00  0.00    +0.105 C 
ENDBRANCH  32  33
ENDBRANCH  31  32
ENDBRANCH   2  26
TORSDOF 7
ENDMDL
MODEL 8
REMARK VINA RESULT:    -9.562      4.185     12.950
REMARK INTER + INTRA:         -13.920
REMARK INTER:                 -12.900
REMARK INTRA:                  -1.020
REMARK UNBOUND:                -0.445
REMARK SMILES Cc1ccc(NC(=O)c2ccc(CN3CCN(C)CC3)cc2)cc1Nc1nccc(-c2cccnc2)n1
REMARK SMILES IDX 6 1 7 2 8 3 5 5 2 6 3 7 24 8 4 9 23 10 1 11 25 12 26 14
REMARK SMILES IDX 27 15 37 16 28 17 30 18 29 19 31 20 32 21 36 22 33 23 35 24
REMARK SMILES IDX 34 25 9 26 10 27 22 28 11 29 21 30 12 31 13 32 14 33 15 34
REMARK SMILES IDX 20 35 16 36 19 37 17 38 18 39
REMARK H PARENT 6 4 25 13
ROOT
ATOM      1  N   UNL     1     -36.080 153.352   5.703  1.00  0.00    -0.322 N 
ATOM      2  C   UNL     1     -35.493 154.601   5.796  1.00  0.00    +0.255 C 
ATOM      3  O   UNL     1     -34.481 154.894   6.420  1.00  0.00    -0.269 OA
ATOM      4  H   UNL     1     -36.836 153.246   5.038  1.00  0.00    +0.170 HD
ENDROOT
BRANCH   1   5
ATOM      5  C   UNL     1     -35.691 152.167   6.364  1.00  0.00    +0.043 A 
ATOM      6  C   UNL     1     -34.908 149.717   7.508  1.00  0.00    -0.027 A 
ATOM      7  C   UNL     1     -35.271 150.810   8.313  1.00  0.00    +0.008 A 
ATOM      8  C   UNL     1     -34.929 149.841   6.101  1.00  0.00    +0.046 A 
ATOM      9  C   UNL     1     -35.660 152.024   7.745  1.00  0.00    +0.026 A 
ATOM     10  C   UNL     1     -35.329 151.075   5.560  1.00  0.00    +0.052 A 
ATOM     11  C   UNL     1     -34.505 148.435   8.189  1.00  0.00    +0.046 C 
BRANCH   8  12
ATOM     12  N   UNL     1     -34.577 148.746   5.297  1.00  0.00    -0.324 N 
ATOM     13  H   UNL     1     -33.709 148.280   5.510  1.00  0.00    +0.170 HD
BRANCH  12  14
ATOM     14  C   UNL     1     -35.142 148.122   4.188  1.00  0.00    +0.227 A 
ATOM     15  N   UNL     1     -36.459 148.138   3.949  1.00  0.00    -0.221 NA
ATOM     16  N   UNL     1     -34.260 147.500   3.388  1.00  0.00    -0.213 NA
ATOM     17  C   UNL     1     -36.894 147.496   2.853  1.00  0.00    +0.117 A 
ATOM     18  C   UNL     1     -34.721 146.850   2.294  1.00  0.00    +0.077 A 
ATOM     19  C   UNL     1     -36.065 146.831   1.985  1.00  0.00    +0.049 A 
BRANCH  18  20
ATOM     20  C   UNL     1     -33.694 146.191   1.468  1.00  0.00    +0.019 A 
ATOM     21  C   UNL     1     -33.174 144.932   1.805  1.00  0.00    +0.013 A 
ATOM     22  C   UNL     1     -33.177 146.762   0.303  1.00  0.00    +0.121 A 
ATOM     23  C   UNL     1     -32.198 144.326   1.015  1.00  0.00    +0.021 A 
ATOM     24  N   UNL     1     -32.223 146.206  -0.486  1.00  0.00    -0.264 NA
ATOM     25  C   UNL     1     -31.756 144.998  -0.110  1.00  0.00    +0.111 A 
ENDBRANCH  18  20
ENDBRANCH  12  14
ENDBRANCH   8  12
ENDBRANCH   1   5
BRANCH   2  26
ATOM     26  C   UNL     1     -36.171 155.669   5.007  1.00  0.00    +0.040 A 
ATOM     27  C   UNL     1     -35.534 156.880   4.708  1.00  0.00    +0.014 A 
ATOM     28  C   UNL     1     -37.467 155.432   4.536  1.00  0.00    +0.014 A 
ATOM     29  C   UNL     1     -36.207 157.857   3.969  1.00  0.00    +0.006 A 
ATOM     30  C   UNL     1     -38.137 156.409   3.799  1.00  0.00    +0.006 A 
ATOM     31  C   UNL     1     -37.516 157.634   3.513  1.00  0.00    -0.034 A 
BRANCH  31  32
ATOM     32  C   UNL     1     -38.239 158.695   2.705  1.00  0.00    +0.120 C 
BRANCH  32  33
ATOM     33  N   UNL     1     -39.165 158.130   1.703  1.00  0.00    -0.297 NA
ATOM     34  C   UNL     1     -38.569 158.110   0.352  1.00  0.00    +0.100 C 
ATOM     35  C   UNL     1     -40.416 158.925   1.655  1.00  0.00    +0.100 C 
ATOM     36  C   UNL     1     -38.300 159.501  -0.284  1.00  0.00    +0.099 C 
ATOM     37  C   UNL     1     -40.473 160.073   0.607  1.00  0.00    +0.099 C 
ATOM     38  N   UNL     1     -39.144 160.586   0.252  1.00  0.00    -0.304 NA
ATOM     39  C   UNL     1     -39.221 161.708  -0.675  1.00  0.00    +0.105 C 
ENDBRANCH  32  33
ENDBRANCH  31  32
ENDBRANCH   2  26
TORSDOF 7
ENDMDL
MODEL 9
REMARK VINA RESULT:    -9.344      3.619      6.563
REMARK INTER + INTRA:         -13.613
REMARK INTER:                 -12.899
REMARK INTRA:                  -0.714
REMARK UNBOUND:                -0.445
REMARK SMILES Cc1ccc(NC(=O)c2ccc(CN3CCN(C)CC3)cc2)cc1Nc1nccc(-c2cccnc2)n1
REMARK SMILES IDX 6 1 7 2 8 3 5 5 2 6 3 7 24 8 4 9 23 10 1 11 25 12 26 14
REMARK SMILES IDX 27 15 37 16 28 17 30 18 29 19 31 20 32 21 36 22 33 23 35 24
REMARK SMILES IDX 34 25 9 26 10 27 22 28 11 29 21 30 12 31 13 32 14 33 15 34
REMARK SMILES IDX 20 35 16 36 19 37 17 38 18 39
REMARK H PARENT 6 4 25 13
ROOT
ATOM      1  N   UNL     1     -37.700 153.400   5.248  1.00  0.00    -0.322 N 
ATOM      2  C   UNL     1     -37.092 152.365   5.934  1.00  0.00    +0.255 C 
ATOM      3  O   UNL     1     -36.208 152.459   6.776  1.00  0.00    -0.269 OA
ATOM      4  H   UNL     1     -38.509 153.168   4.684  1.00  0.00    +0.170 HD
ENDROOT
BRANCH   1   5
ATOM      5  C   UNL     1     -37.382 154.774   5.306  1.00  0.00    +0.043 A 
ATOM      6  C   UNL     1     -36.794 157.526   5.230  1.00  0.00    -0.027 A 
ATOM      7  C   UNL     1     -36.528 156.759   6.377  1.00  0.00    +0.008 A 
ATOM      8  C   UNL     1     -37.369 156.917   4.093  1.00  0.00    +0.046 A 
ATOM      9  C   UNL     1     -36.819 155.395   6.413  1.00  0.00    +0.026 A 
ATOM     10  C   UNL     1     -37.647 155.540   4.159  1.00  0.00    +0.052 A 
ATOM     11  C   UNL     1     -36.448 158.992   5.259  1.00  0.00    +0.046 C 
BRANCH   8  12
ATOM     12  N   UNL     1     -37.625 157.681   2.943  1.00  0.00    -0.324 N 
ATOM     13  H   UNL     1     -36.829 157.951   2.386  1.00  0.00    +0.170 HD
BRANCH  12  14
ATOM     14  C   UNL     1     -38.766 158.222   2.360  1.00  0.00    +0.227 A 
ATOM     15  N   UNL     1     -39.966 158.175   2.951  1.00  0.00    -0.221 NA
ATOM     16  N   UNL     1     -38.565 158.785   1.156  1.00  0.00    -0.213 NA
ATOM     17  C   UNL     1     -41.000 158.722   2.292  1.00  0.00    +0.117 A 
ATOM     18  C   UNL     1     -39.622 159.322   0.505  1.00  0.00    +0.077 A 
ATOM     19  C   UNL     1     -40.886 159.313   1.059  1.00  0.00    +0.049 A 
BRANCH  18  20
ATOM     20  C   UNL     1     -39.322 159.917  -0.809  1.00  0.00    +0.019 A 
ATOM     21  C   UNL     1     -39.574 161.271  -1.079  1.00  0.00    +0.013 A 
ATOM     22  C   UNL     1     -38.766 159.188  -1.862  1.00  0.00    +0.121 A 
ATOM     23  C   UNL     1     -39.289 161.816  -2.331  1.00  0.00    +0.021 A 
ATOM     24  N   UNL     1     -38.483 159.681  -3.094  1.00  0.00    -0.264 NA
ATOM     25  C   UNL     1     -38.751 160.987  -3.299  1.00  0.00    +0.111 A 
ENDBRANCH  18  20
ENDBRANCH  12  14
ENDBRANCH   8  12
ENDBRANCH   1   5
BRANCH   2  26
ATOM     26  C   UNL     1     -37.627 151.009   5.619  1.00  0.00    +0.040 A 
ATOM     27  C   UNL     1     -38.972 150.681   5.829  1.00  0.00    +0.014 A 
ATOM     28  C   UNL     1     -36.757 150.058   5.077  1.00  0.00    +0.014 A 
ATOM     29  C   UNL     1     -39.431 149.397   5.525  1.00  0.00    +0.006 A 
ATOM     30  C   UNL     1     -37.218 148.774   4.775  1.00  0.00    +0.006 A 
ATOM     31  C   UNL     1     -38.559 148.429   5.002  1.00  0.00    -0.034 A 
BRANCH  31  32
ATOM     32  C   UNL     1     -39.064 147.039   4.667  1.00  0.00    +0.120 C 
BRANCH  32  33
ATOM     33  N   UNL     1     -40.510 147.004   4.372  1.00  0.00    -0.297 NA
ATOM     34  C   UNL     1     -41.117 145.709   4.744  1.00  0.00    +0.100 C 
ATOM     35  C   UNL     1     -40.746 147.236   2.926  1.00  0.00    +0.100 C 
ATOM     36  C   UNL     1     -40.643 144.484   3.916  1.00  0.00    +0.099 C 
ATOM     37  C   UNL     1     -40.844 145.974   2.023  1.00  0.00    +0.099 C 
ATOM     38  N   UNL     1     -40.123 144.821   2.577  1.00  0.00    -0.304 NA
ATOM     39  C   UNL     1     -40.166 143.670   1.684  1.00  0.00    +0.105 C 
ENDBRANCH  32  33
ENDBRANCH  31  32
ENDBRANCH   2  26
TORSDOF 7
ENDMDL
MODEL 10
REMARK VINA RESULT:    -9.233      7.209     12.138
REMARK INTER + INTRA:         -13.457
REMARK INTER:                 -12.306
REMARK INTRA:                  -1.151
REMARK UNBOUND:                -0.445
REMARK SMILES Cc1ccc(NC(=O)c2ccc(CN3CCN(C)CC3)cc2)cc1Nc1nccc(-c2cccnc2)n1
REMARK SMILES IDX 6 1 7 2 8 3 5 5 2 6 3 7 24 8 4 9 23 10 1 11 25 12 26 14
REMARK SMILES IDX 27 15 37 16 28 17 30 18 29 19 31 20 32 21 36 22 33 23 35 24
REMARK SMILES IDX 34 25 9 26 10 27 22 28 11 29 21 30 12 31 13 32 14 33 15 34
REMARK SMILES IDX 20 35 16 36 19 37 17 38 18 39
REMARK H PARENT 6 4 25 13
ROOT
ATOM      1  N   UNL     1     -38.392 149.869   3.756  1.00  0.00    -0.322 N 
ATOM      2  C   UNL     1     -37.639 149.663   4.898  1.00  0.00    +0.255 C 
ATOM      3  O   UNL     1     -37.356 148.587   5.409  1.00  0.00    -0.269 OA
ATOM      4  H   UNL     1     -38.421 150.812   3.387  1.00  0.00    +0.170 HD
ENDROOT
BRANCH   1   5
ATOM      5  C   UNL     1     -39.063 148.899   2.981  1.00  0.00    +0.043 A 
ATOM      6  C   UNL     1     -40.280 147.008   1.288  1.00  0.00    -0.027 A 
ATOM      7  C   UNL     1     -40.803 147.283   2.563  1.00  0.00    +0.008 A 
ATOM      8  C   UNL     1     -39.123 147.684   0.840  1.00  0.00    +0.046 A 
ATOM      9  C   UNL     1     -40.199 148.221   3.401  1.00  0.00    +0.026 A 
ATOM     10  C   UNL     1     -38.541 148.626   1.706  1.00  0.00    +0.052 A 
ATOM     11  C   UNL     1     -40.987 145.989   0.433  1.00  0.00    +0.046 C 
BRANCH   8  12
ATOM     12  N   UNL     1     -38.607 147.419  -0.438  1.00  0.00    -0.324 N 
ATOM     13  H   UNL     1     -39.252 147.071  -1.130  1.00  0.00    +0.170 HD
BRANCH  12  14
ATOM     14  C   UNL     1     -37.344 147.487  -1.018  1.00  0.00    +0.227 A 
ATOM     15  N   UNL     1     -37.103 148.187  -2.133  1.00  0.00    -0.221 NA
ATOM     16  N   UNL     1     -36.395 146.788  -0.374  1.00  0.00    -0.213 NA
ATOM     17  C   UNL     1     -35.847 148.176  -2.609  1.00  0.00    +0.117 A 
ATOM     18  C   UNL     1     -35.138 146.782  -0.876  1.00  0.00    +0.077 A 
ATOM     19  C   UNL     1     -34.819 147.486  -2.019  1.00  0.00    +0.049 A 
BRANCH  18  20
ATOM     20  C   UNL     1     -34.155 145.991  -0.115  1.00  0.00    +0.019 A 
ATOM     21  C   UNL     1     -32.873 145.725  -0.621  1.00  0.00    +0.013 A 
ATOM     22  C   UNL     1     -34.423 145.464   1.150  1.00  0.00    +0.121 A 
ATOM     23  C   UNL     1     -31.958 144.969   0.111  1.00  0.00    +0.021 A 
ATOM     24  N   UNL     1     -33.561 144.719   1.887  1.00  0.00    -0.264 NA
ATOM     25  C   UNL     1     -32.346 144.490   1.349  1.00  0.00    +0.111 A 
ENDBRANCH  18  20
ENDBRANCH  12  14
ENDBRANCH   8  12
ENDBRANCH   1   5
BRANCH   2  26
ATOM     26  C   UNL     1     -37.096 150.905   5.519  1.00  0.00    +0.040 A 
ATOM     27  C   UNL     1     -35.831 150.936   6.119  1.00  0.00    +0.014 A 
ATOM     28  C   UNL     1     -37.871 152.069   5.473  1.00  0.00    +0.014 A 
ATOM     29  C   UNL     1     -35.362 152.120   6.695  1.00  0.00    +0.006 A 
ATOM     30  C   UNL     1     -37.401 153.251   6.049  1.00  0.00    +0.006 A 
ATOM     31  C   UNL     1     -36.144 153.286   6.672  1.00  0.00    -0.034 A 
BRANCH  31  32
ATOM     32  C   UNL     1     -35.626 154.570   7.291  1.00  0.00    +0.120 C 
BRANCH  32  33
ATOM     33  N   UNL     1     -34.506 155.167   6.538  1.00  0.00    -0.297 NA
ATOM     34  C   UNL     1     -34.099 156.473   7.098  1.00  0.00    +0.100 C 
ATOM     35  C   UNL     1     -34.887 155.361   5.118  1.00  0.00    +0.100 C 
ATOM     36  C   UNL     1     -35.147 157.612   6.971  1.00  0.00    +0.099 C 
ATOM     37  C   UNL     1     -35.477 156.749   4.738  1.00  0.00    +0.099 C 
ATOM     38  N   UNL     1     -36.115 157.427   5.873  1.00  0.00    -0.304 NA
ATOM     39  C   UNL     1     -36.725 158.692   5.482  1.00  0.00    +0.105 C 
ENDBRANCH  32  33
ENDBRANCH  31  32
ENDBRANCH   2  26
TORSDOF 7
ENDMDL
