REMARK SMILES CNC(=O)c1cc(Oc2ccc(NC(=O)Nc3ccc(Cl)c(C(F)(F)F)c3)c(F)c2)ccn1
REMARK SMILES IDX 9 1 10 2 11 3 12 4 28 5 29 6 30 7 8 8 7 9 5 10 6 11 33 12
REMARK SMILES IDX 32 13 31 14 3 15 2 16 4 17 1 18 13 20 14 21 15 22 16 23
REMARK SMILES IDX 17 26 18 27 27 28 19 29 22 30 20 31 21 32 23 33 24 34 25 35
REMARK SMILES IDX 26 36
REMARK H PARENT 2 19 13 24 16 25
ROOT
ATOM      1  C   UNL     1      -2.129  -0.587  -2.484  1.00  0.00    +0.130 A 
ATOM      2  C   UNL     1      -1.521   0.510  -3.093  1.00  0.00    +0.049 A 
ATOM      3  C   UNL     1      -0.200   0.842  -2.777  1.00  0.00    +0.033 A 
ATOM      4  C   UNL     1       0.521   0.079  -1.850  1.00  0.00    +0.079 A 
ATOM      5  C   UNL     1      -0.090  -1.053  -1.292  1.00  0.00    +0.150 A 
ATOM      6  F   UNL     1       0.598  -1.905  -0.519  1.00  0.00    -0.205 F 
ATOM      7  C   UNL     1      -1.408  -1.387  -1.599  1.00  0.00    +0.088 A 
ENDROOT
BRANCH   1   8
ATOM      8  O   UNL     1      -3.417  -0.888  -2.862  1.00  0.00    -0.457 OA
BRANCH   8   9
ATOM      9  C   UNL     1      -4.330  -1.082  -1.851  1.00  0.00    +0.131 A 
ATOM     10  C   UNL     1      -5.475  -0.458   0.131  1.00  0.00    +0.131 A 
ATOM     11  C   UNL     1      -4.491  -0.179  -0.805  1.00  0.00    +0.081 A 
ATOM     12  N   UNL     1      -6.288  -1.555   0.082  1.00  0.00    -0.251 NA
ATOM     13  C   UNL     1      -6.109  -2.391  -0.963  1.00  0.00    +0.116 A 
ATOM     14  C   UNL     1      -5.159  -2.195  -1.950  1.00  0.00    +0.067 A 
BRANCH  10  15
ATOM     15  C   UNL     1      -5.697   0.480   1.279  1.00  0.00    +0.269 C 
ATOM     16  N   UNL     1      -6.709   0.099   2.134  1.00  0.00    -0.354 N 
ATOM     17  O   UNL     1      -5.016   1.489   1.423  1.00  0.00    -0.268 OA
ATOM     18  C   UNL     1      -6.983   0.794   3.361  1.00  0.00    +0.143 C 
ATOM     19  H   UNL     1      -7.125  -0.811   1.952  1.00  0.00    +0.163 HD
ENDBRANCH  10  15
ENDBRANCH   8   9
ENDBRANCH   1   8
BRANCH   4  20
ATOM     20  N   UNL     1       1.852   0.468  -1.579  1.00  0.00    -0.305 N 
ATOM     21  C   UNL     1       2.511   0.249  -0.375  1.00  0.00    +0.323 C 
ATOM     22  O   UNL     1       1.968  -0.101   0.662  1.00  0.00    -0.248 OA
ATOM     23  N   UNL     1       3.861   0.531  -0.525  1.00  0.00    -0.308 N 
ATOM     24  H   UNL     1       2.207   1.253  -2.105  1.00  0.00    +0.171 HD
ATOM     25  H   UNL     1       4.187   0.540  -1.481  1.00  0.00    +0.171 HD
BRANCH  23  26
ATOM     26  C   UNL     1       4.847   0.552   0.482  1.00  0.00    +0.043 A 
ATOM     27  C   UNL     1       4.566   0.491   1.845  1.00  0.00    +0.028 A 
ATOM     28  C   UNL     1       6.182   0.664   0.073  1.00  0.00    +0.040 A 
ATOM     29  C   UNL     1       5.603   0.528   2.783  1.00  0.00    +0.023 A 
ATOM     30  C   UNL     1       7.240   0.703   1.006  1.00  0.00    +0.076 A 
ATOM     31  C   UNL     1       6.932   0.632   2.368  1.00  0.00    +0.053 A 
ATOM     32 Cl   UNL     1       8.151   0.673   3.588  1.00  0.00    -0.084 Cl
BRANCH  30  33
ATOM     33  C   UNL     1       8.660   0.820   0.526  1.00  0.00    +0.417 C 
ATOM     34  F   UNL     1       8.755   0.877  -0.836  1.00  0.00    -0.166 F 
ATOM     35  F   UNL     1       9.286   1.943   0.973  1.00  0.00    -0.166 F 
ATOM     36  F   UNL     1       9.440  -0.233   0.894  1.00  0.00    -0.166 F 
ENDBRANCH  30  33
ENDBRANCH  23  26
ENDBRANCH   4  20
TORSDOF 6
