MODEL 1
REMARK VINA RESULT:   -10.517      0.000      0.000
REMARK INTER + INTRA:         -14.791
REMARK INTER:                 -14.206
REMARK INTRA:                  -0.585
REMARK UNBOUND:                -0.585
REMARK SMILES CNC(=O)c1cc(Oc2ccc(NC(=O)Nc3ccc(Cl)c(C(F)(F)F)c3)c(F)c2)ccn1
REMARK SMILES IDX 9 1 10 2 11 3 12 4 28 5 29 6 30 7 8 8 7 9 5 10 6 11 33 12
REMARK SMILES IDX 32 13 31 14 3 15 2 16 4 17 1 18 13 20 14 21 15 22 16 23
REMARK SMILES IDX 17 26 18 27 27 28 19 29 22 30 20 31 21 32 23 33 24 34 25 35
REMARK SMILES IDX 26 36
REMARK H PARENT 2 19 13 24 16 25
ROOT
ATOM      1  C   UNL     1     -39.771 160.618  -1.375  1.00  0.00    +0.130 A 
ATOM      2  C   UNL     1     -38.457 160.388  -0.971  1.00  0.00    +0.049 A 
ATOM      3  C   UNL     1     -38.193 159.924   0.321  1.00  0.00    +0.033 A 
ATOM      4  C   UNL     1     -39.243 159.688   1.218  1.00  0.00    +0.079 A 
ATOM      5  C   UNL     1     -40.560 159.872   0.773  1.00  0.00    +0.150 A 
ATOM      6  F   UNL     1     -41.607 159.518   1.532  1.00  0.00    -0.205 F 
ATOM      7  C   UNL     1     -40.829 160.338  -0.513  1.00  0.00    +0.088 A 
ENDROOT
BRANCH   1   8
ATOM      8  O   UNL     1     -39.971 161.038  -2.670  1.00  0.00    -0.457 OA
BRANCH   8   9
ATOM      9  C   UNL     1     -39.346 162.204  -3.047  1.00  0.00    +0.131 A 
ATOM     10  C   UNL     1     -38.354 163.673  -4.624  1.00  0.00    +0.131 A 
ATOM     11  C   UNL     1     -38.931 162.442  -4.353  1.00  0.00    +0.081 A 
ATOM     12  N   UNL     1     -38.175 164.656  -3.691  1.00  0.00    -0.251 NA
ATOM     13  C   UNL     1     -38.613 164.387  -2.442  1.00  0.00    +0.116 A 
ATOM     14  C   UNL     1     -39.207 163.192  -2.077  1.00  0.00    +0.067 A 
BRANCH  10  15
ATOM     15  C   UNL     1     -37.890 163.988  -6.014  1.00  0.00    +0.269 C 
ATOM     16  N   UNL     1     -38.382 165.172  -6.521  1.00  0.00    -0.354 N 
ATOM     17  O   UNL     1     -37.131 163.241  -6.621  1.00  0.00    -0.268 OA
ATOM     18  C   UNL     1     -37.948 165.710  -7.780  1.00  0.00    +0.143 C 
ATOM     19  H   UNL     1     -38.921 165.742  -5.874  1.00  0.00    +0.163 HD
ENDBRANCH  10  15
ENDBRANCH   8   9
ENDBRANCH   1   8
BRANCH   4  20
ATOM     20  N   UNL     1     -38.907 159.217   2.507  1.00  0.00    -0.305 N 
ATOM     21  C   UNL     1     -38.249 158.020   2.766  1.00  0.00    +0.323 C 
ATOM     22  O   UNL     1     -38.077 157.130   1.947  1.00  0.00    -0.248 OA
ATOM     23  N   UNL     1     -37.864 157.979   4.098  1.00  0.00    -0.308 N 
ATOM     24  H   UNL     1     -39.484 159.542   3.269  1.00  0.00    +0.171 HD
ATOM     25  H   UNL     1     -37.835 158.878   4.557  1.00  0.00    +0.171 HD
BRANCH  23  26
ATOM     26  C   UNL     1     -37.282 156.896   4.786  1.00  0.00    +0.043 A 
ATOM     27  C   UNL     1     -37.943 155.698   5.050  1.00  0.00    +0.028 A 
ATOM     28  C   UNL     1     -35.969 157.057   5.247  1.00  0.00    +0.040 A 
ATOM     29  C   UNL     1     -37.298 154.674   5.750  1.00  0.00    +0.023 A 
ATOM     30  C   UNL     1     -35.304 156.033   5.955  1.00  0.00    +0.076 A 
ATOM     31  C   UNL     1     -35.986 154.838   6.199  1.00  0.00    +0.053 A 
ATOM     32 Cl   UNL     1     -35.263 153.527   7.056  1.00  0.00    -0.084 Cl
BRANCH  30  33
ATOM     33  C   UNL     1     -33.893 156.244   6.429  1.00  0.00    +0.417 C 
ATOM     34  F   UNL     1     -33.430 157.503   6.168  1.00  0.00    -0.166 F 
ATOM     35  F   UNL     1     -33.749 156.084   7.773  1.00  0.00    -0.166 F 
ATOM     36  F   UNL     1     -32.997 155.406   5.839  1.00  0.00    -0.166 F 
ENDBRANCH  30  33
ENDBRANCH  23  26
ENDBRANCH   4  20
TORSDOF 6
ENDMDL
MODEL 2
REMARK VINA RESULT:   -10.455      5.141     11.697
REMARK INTER + INTRA:         -14.707
REMARK INTER:                 -14.137
REMARK INTRA:                  -0.570
REMARK UNBOUND:                -0.585
REMARK SMILES CNC(=O)c1cc(Oc2ccc(NC(=O)Nc3ccc(Cl)c(C(F)(F)F)c3)c(F)c2)ccn1
REMARK SMILES IDX 9 1 10 2 11 3 12 4 28 5 29 6 30 7 8 8 7 9 5 10 6 11 33 12
REMARK SMILES IDX 32 13 31 14 3 15 2 16 4 17 1 18 13 20 14 21 15 22 16 23
REMARK SMILES IDX 17 26 18 27 27 28 19 29 22 30 20 31 21 32 23 33 24 34 25 35
REMARK SMILES IDX 26 36
REMARK H PARENT 2 19 13 24 16 25
ROOT
ATOM      1  C   UNL     1     -39.107 158.135   2.490  1.00  0.00    +0.130 A 
ATOM      2  C   UNL     1     -40.212 158.945   2.228  1.00  0.00    +0.049 A 
ATOM      3  C   UNL     1     -40.403 159.474   0.948  1.00  0.00    +0.033 A 
ATOM      4  C   UNL     1     -39.491 159.195  -0.078  1.00  0.00    +0.079 A 
ATOM      5  C   UNL     1     -38.419 158.333   0.192  1.00  0.00    +0.150 A 
ATOM      6  F   UNL     1     -37.604 157.910  -0.784  1.00  0.00    -0.205 F 
ATOM      7  C   UNL     1     -38.220 157.807   1.467  1.00  0.00    +0.088 A 
ENDROOT
BRANCH   1   8
ATOM      8  O   UNL     1     -38.992 157.614   3.758  1.00  0.00    -0.457 OA
BRANCH   8   9
ATOM      9  C   UNL     1     -37.723 157.292   4.182  1.00  0.00    +0.131 A 
ATOM     10  C   UNL     1     -36.044 155.789   4.926  1.00  0.00    +0.131 A 
ATOM     11  C   UNL     1     -37.365 156.002   4.561  1.00  0.00    +0.081 A 
ATOM     12  N   UNL     1     -35.086 156.762   4.930  1.00  0.00    -0.251 NA
ATOM     13  C   UNL     1     -35.475 157.993   4.534  1.00  0.00    +0.116 A 
ATOM     14  C   UNL     1     -36.767 158.302   4.146  1.00  0.00    +0.067 A 
BRANCH  10  15
ATOM     15  C   UNL     1     -35.599 154.419   5.341  1.00  0.00    +0.269 C 
ATOM     16  N   UNL     1     -34.275 154.148   5.072  1.00  0.00    -0.354 N 
ATOM     17  O   UNL     1     -36.369 153.631   5.880  1.00  0.00    -0.268 OA
ATOM     18  C   UNL     1     -33.630 152.944   5.515  1.00  0.00    +0.143 C 
ATOM     19  H   UNL     1     -33.726 154.926   4.715  1.00  0.00    +0.163 HD
ENDBRANCH  10  15
ENDBRANCH   8   9
ENDBRANCH   1   8
BRANCH   4  20
ATOM     20  N   UNL     1     -39.746 159.759  -1.348  1.00  0.00    -0.305 N 
ATOM     21  C   UNL     1     -39.108 160.884  -1.858  1.00  0.00    +0.323 C 
ATOM     22  O   UNL     1     -38.419 161.650  -1.201  1.00  0.00    -0.248 OA
ATOM     23  N   UNL     1     -39.412 161.022  -3.204  1.00  0.00    -0.308 N 
ATOM     24  H   UNL     1     -40.663 159.595  -1.737  1.00  0.00    +0.171 HD
ATOM     25  H   UNL     1     -39.756 160.182  -3.648  1.00  0.00    +0.171 HD
BRANCH  23  26
ATOM     26  C   UNL     1     -39.065 162.092  -4.053  1.00  0.00    +0.043 A 
ATOM     27  C   UNL     1     -39.158 163.434  -3.689  1.00  0.00    +0.028 A 
ATOM     28  C   UNL     1     -38.625 161.773  -5.344  1.00  0.00    +0.040 A 
ATOM     29  C   UNL     1     -38.804 164.438  -4.596  1.00  0.00    +0.023 A 
ATOM     30  C   UNL     1     -38.264 162.774  -6.271  1.00  0.00    +0.076 A 
ATOM     31  C   UNL     1     -38.358 164.112  -5.878  1.00  0.00    +0.053 A 
ATOM     32 Cl   UNL     1     -37.942 165.410  -6.935  1.00  0.00    -0.084 Cl
BRANCH  30  33
ATOM     33  C   UNL     1     -37.792 162.389  -7.645  1.00  0.00    +0.417 C 
ATOM     34  F   UNL     1     -38.571 162.913  -8.638  1.00  0.00    -0.166 F 
ATOM     35  F   UNL     1     -36.530 162.820  -7.919  1.00  0.00    -0.166 F 
ATOM     36  F   UNL     1     -37.799 161.045  -7.859  1.00  0.00    -0.166 F 
ENDBRANCH  30  33
ENDBRANCH  23  26
ENDBRANCH   4  20
TORSDOF 6
ENDMDL
MODEL 3
REMARK VINA RESULT:   -10.387      5.142     12.154
REMARK INTER + INTRA:         -14.615
REMARK INTER:                 -14.192
REMARK INTRA:                  -0.423
REMARK UNBOUND:                -0.585
REMARK SMILES CNC(=O)c1cc(Oc2ccc(NC(=O)Nc3ccc(Cl)c(C(F)(F)F)c3)c(F)c2)ccn1
REMARK SMILES IDX 9 1 10 2 11 3 12 4 28 5 29 6 30 7 8 8 7 9 5 10 6 11 33 12
REMARK SMILES IDX 32 13 31 14 3 15 2 16 4 17 1 18 13 20 14 21 15 22 16 23
REMARK SMILES IDX 17 26 18 27 27 28 19 29 22 30 20 31 21 32 23 33 24 34 25 35
REMARK SMILES IDX 26 36
REMARK H PARENT 2 19 13 24 16 25
ROOT
ATOM      1  C   UNL     1     -35.498 154.008   6.286  1.00  0.00    +0.130 A 
ATOM      2  C   UNL     1     -36.437 153.464   5.411  1.00  0.00    +0.049 A 
ATOM      3  C   UNL     1     -37.369 154.295   4.781  1.00  0.00    +0.033 A 
ATOM      4  C   UNL     1     -37.367 155.674   5.023  1.00  0.00    +0.079 A 
ATOM      5  C   UNL     1     -36.378 156.208   5.861  1.00  0.00    +0.150 A 
ATOM      6  F   UNL     1     -36.231 157.532   6.009  1.00  0.00    -0.205 F 
ATOM      7  C   UNL     1     -35.449 155.385   6.496  1.00  0.00    +0.088 A 
ENDROOT
BRANCH   1   8
ATOM      8  O   UNL     1     -34.582 153.147   6.847  1.00  0.00    -0.457 OA
BRANCH   8   9
ATOM      9  C   UNL     1     -34.916 151.812   6.863  1.00  0.00    +0.131 A 
ATOM     10  C   UNL     1     -35.091 149.652   5.899  1.00  0.00    +0.131 A 
ATOM     11  C   UNL     1     -34.765 150.991   5.750  1.00  0.00    +0.081 A 
ATOM     12  N   UNL     1     -35.543 149.100   7.064  1.00  0.00    -0.251 NA
ATOM     13  C   UNL     1     -35.652 149.931   8.122  1.00  0.00    +0.116 A 
ATOM     14  C   UNL     1     -35.345 151.280   8.074  1.00  0.00    +0.067 A 
BRANCH  10  15
ATOM     15  C   UNL     1     -34.947 148.717   4.736  1.00  0.00    +0.269 C 
ATOM     16  N   UNL     1     -34.903 149.343   3.509  1.00  0.00    -0.354 N 
ATOM     17  O   UNL     1     -34.870 147.504   4.894  1.00  0.00    -0.268 OA
ATOM     18  C   UNL     1     -34.635 148.631   2.290  1.00  0.00    +0.143 C 
ATOM     19  H   UNL     1     -34.876 150.360   3.529  1.00  0.00    +0.163 HD
ENDBRANCH  10  15
ENDBRANCH   8   9
ENDBRANCH   1   8
BRANCH   4  20
ATOM     20  N   UNL     1     -38.334 156.456   4.351  1.00  0.00    -0.305 N 
ATOM     21  C   UNL     1     -38.080 157.239   3.231  1.00  0.00    +0.323 C 
ATOM     22  O   UNL     1     -36.965 157.525   2.821  1.00  0.00    -0.248 OA
ATOM     23  N   UNL     1     -39.278 157.675   2.686  1.00  0.00    -0.308 N 
ATOM     24  H   UNL     1     -39.120 156.769   4.901  1.00  0.00    +0.171 HD
ATOM     25  H   UNL     1     -40.089 157.142   2.968  1.00  0.00    +0.171 HD
BRANCH  23  26
ATOM     26  C   UNL     1     -39.454 158.584   1.623  1.00  0.00    +0.043 A 
ATOM     27  C   UNL     1     -40.249 159.725   1.700  1.00  0.00    +0.028 A 
ATOM     28  C   UNL     1     -38.801 158.297   0.417  1.00  0.00    +0.040 A 
ATOM     29  C   UNL     1     -40.380 160.572   0.594  1.00  0.00    +0.023 A 
ATOM     30  C   UNL     1     -38.923 159.140  -0.708  1.00  0.00    +0.076 A 
ATOM     31  C   UNL     1     -39.720 160.283  -0.602  1.00  0.00    +0.053 A 
ATOM     32 Cl   UNL     1     -39.935 161.377  -1.918  1.00  0.00    -0.084 Cl
BRANCH  30  33
ATOM     33  C   UNL     1     -38.203 158.798  -1.983  1.00  0.00    +0.417 C 
ATOM     34  F   UNL     1     -39.055 158.471  -3.000  1.00  0.00    -0.166 F 
ATOM     35  F   UNL     1     -37.451 159.825  -2.465  1.00  0.00    -0.166 F 
ATOM     36  F   UNL     1     -37.369 157.729  -1.859  1.00  0.00    -0.166 F 
ENDBRANCH  30  33
ENDBRANCH  23  26
ENDBRANCH   4  20
TORSDOF 6
ENDMDL
MODEL 4
REMARK VINA RESULT:   -10.298      1.926      2.361
REMARK INTER + INTRA:         -14.495
REMARK INTER:                 -14.788
REMARK INTRA:                   0.293
REMARK UNBOUND:                -0.585
REMARK SMILES CNC(=O)c1cc(Oc2ccc(NC(=O)Nc3ccc(Cl)c(C(F)(F)F)c3)c(F)c2)ccn1
REMARK SMILES IDX 9 1 10 2 11 3 12 4 28 5 29 6 30 7 8 8 7 9 5 10 6 11 33 12
REMARK SMILES IDX 32 13 31 14 3 15 2 16 4 17 1 18 13 20 14 21 15 22 16 23
REMARK SMILES IDX 17 26 18 27 27 28 19 29 22 30 20 31 21 32 23 33 24 34 25 35
REMARK SMILES IDX 26 36
REMARK H PARENT 2 19 13 24 16 25
ROOT
ATOM      1  C   UNL     1     -39.298 159.964  -2.591  1.00  0.00    +0.130 A 
ATOM      2  C   UNL     1     -38.615 158.789  -2.276  1.00  0.00    +0.049 A 
ATOM      3  C   UNL     1     -38.686 158.265  -0.981  1.00  0.00    +0.033 A 
ATOM      4  C   UNL     1     -39.440 158.912   0.006  1.00  0.00    +0.079 A 
ATOM      5  C   UNL     1     -40.165 160.060  -0.347  1.00  0.00    +0.150 A 
ATOM      6  F   UNL     1     -41.021 160.632   0.511  1.00  0.00    -0.205 F 
ATOM      7  C   UNL     1     -40.095 160.590  -1.634  1.00  0.00    +0.088 A 
ENDROOT
BRANCH   1   8
ATOM      8  O   UNL     1     -39.223 160.411  -3.889  1.00  0.00    -0.457 OA
BRANCH   8   9
ATOM      9  C   UNL     1     -38.922 161.742  -4.069  1.00  0.00    +0.131 A 
ATOM     10  C   UNL     1     -38.404 163.648  -5.384  1.00  0.00    +0.131 A 
ATOM     11  C   UNL     1     -38.647 162.284  -5.321  1.00  0.00    +0.081 A 
ATOM     12  N   UNL     1     -38.423 164.479  -4.300  1.00  0.00    -0.251 NA
ATOM     13  C   UNL     1     -38.716 163.911  -3.110  1.00  0.00    +0.116 A 
ATOM     14  C   UNL     1     -38.979 162.562  -2.947  1.00  0.00    +0.067 A 
BRANCH  10  15
ATOM     15  C   UNL     1     -38.105 164.289  -6.705  1.00  0.00    +0.269 C 
ATOM     16  N   UNL     1     -37.783 163.399  -7.707  1.00  0.00    -0.354 N 
ATOM     17  O   UNL     1     -38.157 165.505  -6.854  1.00  0.00    -0.268 OA
ATOM     18  C   UNL     1     -37.596 163.809  -9.071  1.00  0.00    +0.143 C 
ATOM     19  H   UNL     1     -37.875 162.414  -7.472  1.00  0.00    +0.163 HD
ENDBRANCH  10  15
ENDBRANCH   8   9
ENDBRANCH   1   8
BRANCH   4  20
ATOM     20  N   UNL     1     -39.471 158.327   1.291  1.00  0.00    -0.305 N 
ATOM     21  C   UNL     1     -38.346 157.993   2.036  1.00  0.00    +0.323 C 
ATOM     22  O   UNL     1     -37.207 157.954   1.596  1.00  0.00    -0.248 OA
ATOM     23  N   UNL     1     -38.724 157.669   3.331  1.00  0.00    -0.308 N 
ATOM     24  H   UNL     1     -40.291 157.783   1.518  1.00  0.00    +0.171 HD
ATOM     25  H   UNL     1     -39.637 158.007   3.602  1.00  0.00    +0.171 HD
BRANCH  23  26
ATOM     26  C   UNL     1     -37.904 157.163   4.360  1.00  0.00    +0.043 A 
ATOM     27  C   UNL     1     -37.111 157.959   5.183  1.00  0.00    +0.028 A 
ATOM     28  C   UNL     1     -37.879 155.774   4.537  1.00  0.00    +0.040 A 
ATOM     29  C   UNL     1     -36.315 157.377   6.175  1.00  0.00    +0.023 A 
ATOM     30  C   UNL     1     -37.082 155.170   5.534  1.00  0.00    +0.076 A 
ATOM     31  C   UNL     1     -36.301 155.992   6.352  1.00  0.00    +0.053 A 
ATOM     32 Cl   UNL     1     -35.293 155.354   7.598  1.00  0.00    -0.084 Cl
BRANCH  30  33
ATOM     33  C   UNL     1     -37.087 153.675   5.695  1.00  0.00    +0.417 C 
ATOM     34  F   UNL     1     -37.927 153.051   4.816  1.00  0.00    -0.166 F 
ATOM     35  F   UNL     1     -35.867 153.110   5.481  1.00  0.00    -0.166 F 
ATOM     36  F   UNL     1     -37.494 153.269   6.928  1.00  0.00    -0.166 F 
ENDBRANCH  30  33
ENDBRANCH  23  26
ENDBRANCH   4  20
TORSDOF 6
ENDMDL
MODEL 5
REMARK VINA RESULT:   -10.280      2.191      2.803
REMARK INTER + INTRA:         -14.470
REMARK INTER:                 -15.053
REMARK INTRA:                   0.583
REMARK UNBOUND:                -0.585
REMARK SMILES CNC(=O)c1cc(Oc2ccc(NC(=O)Nc3ccc(Cl)c(C(F)(F)F)c3)c(F)c2)ccn1
REMARK SMILES IDX 9 1 10 2 11 3 12 4 28 5 29 6 30 7 8 8 7 9 5 10 6 11 33 12
REMARK SMILES IDX 32 13 31 14 3 15 2 16 4 17 1 18 13 20 14 21 15 22 16 23
REMARK SMILES IDX 17 26 18 27 27 28 19 29 22 30 20 31 21 32 23 33 24 34 25 35
REMARK SMILES IDX 26 36
REMARK H PARENT 2 19 13 24 16 25
ROOT
ATOM      1  C   UNL     1     -40.261 160.776   0.150  1.00  0.00    +0.130 A 
ATOM      2  C   UNL     1     -38.946 160.416   0.442  1.00  0.00    +0.049 A 
ATOM      3  C   UNL     1     -38.689 159.398   1.366  1.00  0.00    +0.033 A 
ATOM      4  C   UNL     1     -39.745 158.736   2.005  1.00  0.00    +0.079 A 
ATOM      5  C   UNL     1     -41.060 159.075   1.655  1.00  0.00    +0.150 A 
ATOM      6  F   UNL     1     -42.105 158.375   2.116  1.00  0.00    -0.205 F 
ATOM      7  C   UNL     1     -41.323 160.091   0.738  1.00  0.00    +0.088 A 
ENDROOT
BRANCH   1   8
ATOM      8  O   UNL     1     -40.454 161.757  -0.795  1.00  0.00    -0.457 OA
BRANCH   8   9
ATOM      9  C   UNL     1     -39.731 161.645  -1.960  1.00  0.00    +0.131 A 
ATOM     10  C   UNL     1     -38.576 162.517  -3.841  1.00  0.00    +0.131 A 
ATOM     11  C   UNL     1     -39.341 162.751  -2.708  1.00  0.00    +0.081 A 
ATOM     12  N   UNL     1     -38.186 161.275  -4.256  1.00  0.00    -0.251 NA
ATOM     13  C   UNL     1     -38.571 160.234  -3.487  1.00  0.00    +0.116 A 
ATOM     14  C   UNL     1     -39.329 160.367  -2.336  1.00  0.00    +0.067 A 
BRANCH  10  15
ATOM     15  C   UNL     1     -38.123 163.670  -4.684  1.00  0.00    +0.269 C 
ATOM     16  N   UNL     1     -38.392 163.527  -6.029  1.00  0.00    -0.354 N 
ATOM     17  O   UNL     1     -37.570 164.646  -4.192  1.00  0.00    -0.268 OA
ATOM     18  C   UNL     1     -38.156 164.581  -6.977  1.00  0.00    +0.143 C 
ATOM     19  H   UNL     1     -38.945 162.714  -6.288  1.00  0.00    +0.163 HD
ENDBRANCH  10  15
ENDBRANCH   8   9
ENDBRANCH   1   8
BRANCH   4  20
ATOM     20  N   UNL     1     -39.414 157.716   2.925  1.00  0.00    -0.305 N 
ATOM     21  C   UNL     1     -38.124 157.267   3.179  1.00  0.00    +0.323 C 
ATOM     22  O   UNL     1     -37.148 157.531   2.494  1.00  0.00    -0.248 OA
ATOM     23  N   UNL     1     -38.129 156.443   4.295  1.00  0.00    -0.308 N 
ATOM     24  H   UNL     1     -40.133 157.033   3.116  1.00  0.00    +0.171 HD
ATOM     25  H   UNL     1     -38.937 156.545   4.892  1.00  0.00    +0.171 HD
BRANCH  23  26
ATOM     26  C   UNL     1     -37.051 155.693   4.809  1.00  0.00    +0.043 A 
ATOM     27  C   UNL     1     -35.774 156.210   5.014  1.00  0.00    +0.028 A 
ATOM     28  C   UNL     1     -37.289 154.345   5.104  1.00  0.00    +0.040 A 
ATOM     29  C   UNL     1     -34.755 155.396   5.519  1.00  0.00    +0.023 A 
ATOM     30  C   UNL     1     -36.272 153.509   5.613  1.00  0.00    +0.076 A 
ATOM     31  C   UNL     1     -35.001 154.054   5.818  1.00  0.00    +0.053 A 
ATOM     32 Cl   UNL     1     -33.690 153.118   6.435  1.00  0.00    -0.084 Cl
BRANCH  30  33
ATOM     33  C   UNL     1     -36.569 152.068   5.920  1.00  0.00    +0.417 C 
ATOM     34  F   UNL     1     -37.839 151.704   5.574  1.00  0.00    -0.166 F 
ATOM     35  F   UNL     1     -35.757 151.200   5.256  1.00  0.00    -0.166 F 
ATOM     36  F   UNL     1     -36.460 151.767   7.243  1.00  0.00    -0.166 F 
ENDBRANCH  30  33
ENDBRANCH  23  26
ENDBRANCH   4  20
TORSDOF 6
ENDMDL
MODEL 6
REMARK VINA RESULT:   -10.024      1.281      1.599
REMARK INTER + INTRA:         -14.124
REMARK INTER:                 -14.570
REMARK INTRA:                   0.445
REMARK UNBOUND:                -0.585
REMARK SMILES CNC(=O)c1cc(Oc2ccc(NC(=O)Nc3ccc(Cl)c(C(F)(F)F)c3)c(F)c2)ccn1
REMARK SMILES IDX 9 1 10 2 11 3 12 4 28 5 29 6 30 7 8 8 7 9 5 10 6 11 33 12
REMARK SMILES IDX 32 13 31 14 3 15 2 16 4 17 1 18 13 20 14 21 15 22 16 23
REMARK SMILES IDX 17 26 18 27 27 28 19 29 22 30 20 31 21 32 23 33 24 34 25 35
REMARK SMILES IDX 26 36
REMARK H PARENT 2 19 13 24 16 25
ROOT
ATOM      1  C   UNL     1     -39.519 161.185  -0.616  1.00  0.00    +0.130 A 
ATOM      2  C   UNL     1     -38.260 160.590  -0.537  1.00  0.00    +0.049 A 
ATOM      3  C   UNL     1     -38.085 159.421   0.209  1.00  0.00    +0.033 A 
ATOM      4  C   UNL     1     -39.168 158.839   0.881  1.00  0.00    +0.079 A 
ATOM      5  C   UNL     1     -40.436 159.421   0.741  1.00  0.00    +0.150 A 
ATOM      6  F   UNL     1     -41.532 158.826   1.233  1.00  0.00    -0.205 F 
ATOM      7  C   UNL     1     -40.617 160.589   0.003  1.00  0.00    +0.088 A 
ENDROOT
BRANCH   1   8
ATOM      8  O   UNL     1     -39.639 162.312  -1.395  1.00  0.00    -0.457 OA
BRANCH   8   9
ATOM      9  C   UNL     1     -39.321 162.181  -2.728  1.00  0.00    +0.131 A 
ATOM     10  C   UNL     1     -38.658 163.011  -4.849  1.00  0.00    +0.131 A 
ATOM     11  C   UNL     1     -39.006 163.271  -3.533  1.00  0.00    +0.081 A 
ATOM     12  N   UNL     1     -38.603 161.759  -5.393  1.00  0.00    -0.251 NA
ATOM     13  C   UNL     1     -38.896 160.731  -4.567  1.00  0.00    +0.116 A 
ATOM     14  C   UNL     1     -39.249 160.889  -3.238  1.00  0.00    +0.067 A 
BRANCH  10  15
ATOM     15  C   UNL     1     -38.305 164.145  -5.763  1.00  0.00    +0.269 C 
ATOM     16  N   UNL     1     -38.166 163.784  -7.086  1.00  0.00    -0.354 N 
ATOM     17  O   UNL     1     -38.166 165.288  -5.342  1.00  0.00    -0.268 OA
ATOM     18  C   UNL     1     -37.963 164.749  -8.131  1.00  0.00    +0.143 C 
ATOM     19  H   UNL     1     -38.408 162.822  -7.312  1.00  0.00    +0.163 HD
ENDBRANCH  10  15
ENDBRANCH   8   9
ENDBRANCH   1   8
BRANCH   4  20
ATOM     20  N   UNL     1     -38.922 157.656   1.614  1.00  0.00    -0.305 N 
ATOM     21  C   UNL     1     -37.989 157.540   2.638  1.00  0.00    +0.323 C 
ATOM     22  O   UNL     1     -37.121 158.362   2.885  1.00  0.00    -0.248 OA
ATOM     23  N   UNL     1     -38.171 156.333   3.298  1.00  0.00    -0.308 N 
ATOM     24  H   UNL     1     -39.131 156.786   1.147  1.00  0.00    +0.171 HD
ATOM     25  H   UNL     1     -39.076 155.907   3.157  1.00  0.00    +0.171 HD
BRANCH  23  26
ATOM     26  C   UNL     1     -37.361 155.783   4.312  1.00  0.00    +0.043 A 
ATOM     27  C   UNL     1     -37.766 154.749   5.153  1.00  0.00    +0.028 A 
ATOM     28  C   UNL     1     -36.085 156.333   4.485  1.00  0.00    +0.040 A 
ATOM     29  C   UNL     1     -36.904 154.265   6.143  1.00  0.00    +0.023 A 
ATOM     30  C   UNL     1     -35.203 155.857   5.479  1.00  0.00    +0.076 A 
ATOM     31  C   UNL     1     -35.630 154.813   6.306  1.00  0.00    +0.053 A 
ATOM     32 Cl   UNL     1     -34.630 154.161   7.550  1.00  0.00    -0.084 Cl
BRANCH  30  33
ATOM     33  C   UNL     1     -33.840 156.473   5.631  1.00  0.00    +0.417 C 
ATOM     34  F   UNL     1     -33.671 157.094   6.836  1.00  0.00    -0.166 F 
ATOM     35  F   UNL     1     -32.830 155.564   5.555  1.00  0.00    -0.166 F 
ATOM     36  F   UNL     1     -33.575 157.428   4.698  1.00  0.00    -0.166 F 
ENDBRANCH  30  33
ENDBRANCH  23  26
ENDBRANCH   4  20
TORSDOF 6
ENDMDL
MODEL 7
REMARK VINA RESULT:    -9.840      4.873     11.371
REMARK INTER + INTRA:         -13.876
REMARK INTER:                 -14.013
REMARK INTRA:                   0.137
REMARK UNBOUND:                -0.585
REMARK SMILES CNC(=O)c1cc(Oc2ccc(NC(=O)Nc3ccc(Cl)c(C(F)(F)F)c3)c(F)c2)ccn1
REMARK SMILES IDX 9 1 10 2 11 3 12 4 28 5 29 6 30 7 8 8 7 9 5 10 6 11 33 12
REMARK SMILES IDX 32 13 31 14 3 15 2 16 4 17 1 18 13 20 14 21 15 22 16 23
REMARK SMILES IDX 17 26 18 27 27 28 19 29 22 30 20 31 21 32 23 33 24 34 25 35
REMARK SMILES IDX 26 36
REMARK H PARENT 2 19 13 24 16 25
ROOT
ATOM      1  C   UNL     1     -38.939 157.617   2.853  1.00  0.00    +0.130 A 
ATOM      2  C   UNL     1     -37.904 158.028   2.014  1.00  0.00    +0.049 A 
ATOM      3  C   UNL     1     -38.151 158.969   1.010  1.00  0.00    +0.033 A 
ATOM      4  C   UNL     1     -39.433 159.505   0.839  1.00  0.00    +0.079 A 
ATOM      5  C   UNL     1     -40.446 159.121   1.729  1.00  0.00    +0.150 A 
ATOM      6  F   UNL     1     -41.649 159.712   1.711  1.00  0.00    -0.205 F 
ATOM      7  C   UNL     1     -40.208 158.180   2.730  1.00  0.00    +0.088 A 
ENDROOT
BRANCH   1   8
ATOM      8  O   UNL     1     -38.630 156.718   3.847  1.00  0.00    -0.457 OA
BRANCH   8   9
ATOM      9  C   UNL     1     -37.436 156.907   4.504  1.00  0.00    +0.131 A 
ATOM     10  C   UNL     1     -35.339 156.195   5.356  1.00  0.00    +0.131 A 
ATOM     11  C   UNL     1     -36.530 155.874   4.723  1.00  0.00    +0.081 A 
ATOM     12  N   UNL     1     -35.007 157.455   5.768  1.00  0.00    -0.251 NA
ATOM     13  C   UNL     1     -35.908 158.428   5.515  1.00  0.00    +0.116 A 
ATOM     14  C   UNL     1     -37.120 158.208   4.884  1.00  0.00    +0.067 A 
BRANCH  10  15
ATOM     15  C   UNL     1     -34.322 155.125   5.616  1.00  0.00    +0.269 C 
ATOM     16  N   UNL     1     -34.663 153.887   5.114  1.00  0.00    -0.354 N 
ATOM     17  O   UNL     1     -33.283 155.361   6.221  1.00  0.00    -0.268 OA
ATOM     18  C   UNL     1     -33.761 152.769   5.144  1.00  0.00    +0.143 C 
ATOM     19  H   UNL     1     -35.507 153.854   4.547  1.00  0.00    +0.163 HD
ENDBRANCH  10  15
ENDBRANCH   8   9
ENDBRANCH   1   8
BRANCH   4  20
ATOM     20  N   UNL     1     -39.612 160.454  -0.193  1.00  0.00    -0.305 N 
ATOM     21  C   UNL     1     -38.993 160.396  -1.437  1.00  0.00    +0.323 C 
ATOM     22  O   UNL     1     -38.061 159.657  -1.717  1.00  0.00    -0.248 OA
ATOM     23  N   UNL     1     -39.566 161.332  -2.285  1.00  0.00    -0.308 N 
ATOM     24  H   UNL     1     -39.874 161.386   0.093  1.00  0.00    +0.171 HD
ATOM     25  H   UNL     1     -40.477 161.660  -2.000  1.00  0.00    +0.171 HD
BRANCH  23  26
ATOM     26  C   UNL     1     -39.148 161.675  -3.587  1.00  0.00    +0.043 A 
ATOM     27  C   UNL     1     -39.001 160.754  -4.623  1.00  0.00    +0.028 A 
ATOM     28  C   UNL     1     -38.844 163.020  -3.833  1.00  0.00    +0.040 A 
ATOM     29  C   UNL     1     -38.571 161.173  -5.886  1.00  0.00    +0.023 A 
ATOM     30  C   UNL     1     -38.408 163.459  -5.101  1.00  0.00    +0.076 A 
ATOM     31  C   UNL     1     -38.277 162.517  -6.126  1.00  0.00    +0.053 A 
ATOM     32 Cl   UNL     1     -37.751 162.951  -7.710  1.00  0.00    -0.084 Cl
BRANCH  30  33
ATOM     33  C   UNL     1     -38.095 164.913  -5.325  1.00  0.00    +0.417 C 
ATOM     34  F   UNL     1     -38.603 165.388  -6.501  1.00  0.00    -0.166 F 
ATOM     35  F   UNL     1     -38.609 165.726  -4.362  1.00  0.00    -0.166 F 
ATOM     36  F   UNL     1     -36.760 165.172  -5.382  1.00  0.00    -0.166 F 
ENDBRANCH  30  33
ENDBRANCH  23  26
ENDBRANCH   4  20
TORSDOF 6
ENDMDL
MODEL 8
REMARK VINA RESULT:    -9.717      4.531      7.870
REMARK INTER + INTRA:         -13.710
REMARK INTER:                 -13.082
REMARK INTRA:                  -0.628
REMARK UNBOUND:                -0.585
REMARK SMILES CNC(=O)c1cc(Oc2ccc(NC(=O)Nc3ccc(Cl)c(C(F)(F)F)c3)c(F)c2)ccn1
REMARK SMILES IDX 9 1 10 2 11 3 12 4 28 5 29 6 30 7 8 8 7 9 5 10 6 11 33 12
REMARK SMILES IDX 32 13 31 14 3 15 2 16 4 17 1 18 13 20 14 21 15 22 16 23
REMARK SMILES IDX 17 26 18 27 27 28 19 29 22 30 20 31 21 32 23 33 24 34 25 35
REMARK SMILES IDX 26 36
REMARK H PARENT 2 19 13 24 16 25
ROOT
ATOM      1  C   UNL     1     -38.046 163.452  -8.368  1.00  0.00    +0.130 A 
ATOM      2  C   UNL     1     -37.878 162.096  -8.092  1.00  0.00    +0.049 A 
ATOM      3  C   UNL     1     -37.831 161.653  -6.766  1.00  0.00    +0.033 A 
ATOM      4  C   UNL     1     -37.951 162.564  -5.709  1.00  0.00    +0.079 A 
ATOM      5  C   UNL     1     -38.176 163.915  -6.009  1.00  0.00    +0.150 A 
ATOM      6  F   UNL     1     -38.450 164.805  -5.046  1.00  0.00    -0.205 F 
ATOM      7  C   UNL     1     -38.220 164.364  -7.328  1.00  0.00    +0.088 A 
ENDROOT
BRANCH   1   8
ATOM      8  O   UNL     1     -38.124 163.824  -9.691  1.00  0.00    -0.457 OA
BRANCH   8   9
ATOM      9  C   UNL     1     -36.984 164.350 -10.254  1.00  0.00    +0.131 A 
ATOM     10  C   UNL     1     -35.584 166.133 -10.953  1.00  0.00    +0.131 A 
ATOM     11  C   UNL     1     -36.793 165.718 -10.416  1.00  0.00    +0.081 A 
ATOM     12  N   UNL     1     -34.581 165.283 -11.325  1.00  0.00    -0.251 NA
ATOM     13  C   UNL     1     -34.803 163.966 -11.128  1.00  0.00    +0.116 A 
ATOM     14  C   UNL     1     -35.973 163.456 -10.593  1.00  0.00    +0.067 A 
BRANCH  10  15
ATOM     15  C   UNL     1     -35.320 167.596 -11.149  1.00  0.00    +0.269 C 
ATOM     16  N   UNL     1     -33.999 167.904 -11.397  1.00  0.00    -0.354 N 
ATOM     17  O   UNL     1     -36.223 168.423 -11.095  1.00  0.00    -0.268 OA
ATOM     18  C   UNL     1     -33.570 169.231 -11.743  1.00  0.00    +0.143 C 
ATOM     19  H   UNL     1     -33.373 167.112 -11.514  1.00  0.00    +0.163 HD
ENDBRANCH  10  15
ENDBRANCH   8   9
ENDBRANCH   1   8
BRANCH   4  20
ATOM     20  N   UNL     1     -37.897 162.049  -4.395  1.00  0.00    -0.305 N 
ATOM     21  C   UNL     1     -39.008 161.724  -3.626  1.00  0.00    +0.323 C 
ATOM     22  O   UNL     1     -40.157 162.042  -3.894  1.00  0.00    -0.248 OA
ATOM     23  N   UNL     1     -38.605 161.027  -2.496  1.00  0.00    -0.308 N 
ATOM     24  H   UNL     1     -37.077 162.281  -3.854  1.00  0.00    +0.171 HD
ATOM     25  H   UNL     1     -37.684 160.617  -2.559  1.00  0.00    +0.171 HD
BRANCH  23  26
ATOM     26  C   UNL     1     -39.407 160.624  -1.409  1.00  0.00    +0.043 A 
ATOM     27  C   UNL     1     -40.752 160.957  -1.271  1.00  0.00    +0.028 A 
ATOM     28  C   UNL     1     -38.794 159.864  -0.405  1.00  0.00    +0.040 A 
ATOM     29  C   UNL     1     -41.477 160.526  -0.155  1.00  0.00    +0.023 A 
ATOM     30  C   UNL     1     -39.510 159.421   0.728  1.00  0.00    +0.076 A 
ATOM     31  C   UNL     1     -40.862 159.762   0.839  1.00  0.00    +0.053 A 
ATOM     32 Cl   UNL     1     -41.825 159.272   2.183  1.00  0.00    -0.084 Cl
BRANCH  30  33
ATOM     33  C   UNL     1     -38.816 158.604   1.782  1.00  0.00    +0.417 C 
ATOM     34  F   UNL     1     -37.488 158.418   1.519  1.00  0.00    -0.166 F 
ATOM     35  F   UNL     1     -38.858 159.175   3.017  1.00  0.00    -0.166 F 
ATOM     36  F   UNL     1     -39.331 157.351   1.915  1.00  0.00    -0.166 F 
ENDBRANCH  30  33
ENDBRANCH  23  26
ENDBRANCH   4  20
TORSDOF 6
ENDMDL
MODEL 9
REMARK VINA RESULT:    -9.641      1.945      2.251
REMARK INTER + INTRA:         -13.607
REMARK INTER:                 -13.817
REMARK INTRA:                   0.210
REMARK UNBOUND:                -0.585
REMARK SMILES CNC(=O)c1cc(Oc2ccc(NC(=O)Nc3ccc(Cl)c(C(F)(F)F)c3)c(F)c2)ccn1
REMARK SMILES IDX 9 1 10 2 11 3 12 4 28 5 29 6 30 7 8 8 7 9 5 10 6 11 33 12
REMARK SMILES IDX 32 13 31 14 3 15 2 16 4 17 1 18 13 20 14 21 15 22 16 23
REMARK SMILES IDX 17 26 18 27 27 28 19 29 22 30 20 31 21 32 23 33 24 34 25 35
REMARK SMILES IDX 26 36
REMARK H PARENT 2 19 13 24 16 25
ROOT
ATOM      1  C   UNL     1     -39.730 161.162  -2.219  1.00  0.00    +0.130 A 
ATOM      2  C   UNL     1     -38.740 160.258  -2.604  1.00  0.00    +0.049 A 
ATOM      3  C   UNL     1     -38.378 159.213  -1.749  1.00  0.00    +0.033 A 
ATOM      4  C   UNL     1     -39.003 159.066  -0.504  1.00  0.00    +0.079 A 
ATOM      5  C   UNL     1     -40.034 159.951  -0.161  1.00  0.00    +0.150 A 
ATOM      6  F   UNL     1     -40.770 159.768   0.945  1.00  0.00    -0.205 F 
ATOM      7  C   UNL     1     -40.397 160.998  -1.007  1.00  0.00    +0.088 A 
ENDROOT
BRANCH   1   8
ATOM      8  O   UNL     1     -40.071 162.147  -3.117  1.00  0.00    -0.457 OA
BRANCH   8   9
ATOM      9  C   UNL     1     -39.049 162.682  -3.868  1.00  0.00    +0.131 A 
ATOM     10  C   UNL     1     -37.552 162.713  -5.708  1.00  0.00    +0.131 A 
ATOM     11  C   UNL     1     -38.551 162.056  -5.006  1.00  0.00    +0.081 A 
ATOM     12  N   UNL     1     -37.038 163.927  -5.351  1.00  0.00    -0.251 NA
ATOM     13  C   UNL     1     -37.568 164.506  -4.252  1.00  0.00    +0.116 A 
ATOM     14  C   UNL     1     -38.572 163.933  -3.490  1.00  0.00    +0.067 A 
BRANCH  10  15
ATOM     15  C   UNL     1     -36.978 162.088  -6.944  1.00  0.00    +0.269 C 
ATOM     16  N   UNL     1     -37.663 162.391  -8.102  1.00  0.00    -0.354 N 
ATOM     17  O   UNL     1     -35.979 161.379  -6.899  1.00  0.00    -0.268 OA
ATOM     18  C   UNL     1     -37.191 161.998  -9.401  1.00  0.00    +0.143 C 
ATOM     19  H   UNL     1     -38.413 163.071  -8.009  1.00  0.00    +0.163 HD
ENDBRANCH  10  15
ENDBRANCH   8   9
ENDBRANCH   1   8
BRANCH   4  20
ATOM     20  N   UNL     1     -38.591 157.986   0.309  1.00  0.00    -0.305 N 
ATOM     21  C   UNL     1     -38.302 158.082   1.666  1.00  0.00    +0.323 C 
ATOM     22  O   UNL     1     -38.153 159.132   2.273  1.00  0.00    -0.248 OA
ATOM     23  N   UNL     1     -38.167 156.811   2.204  1.00  0.00    -0.308 N 
ATOM     24  H   UNL     1     -38.121 157.225  -0.158  1.00  0.00    +0.171 HD
ATOM     25  H   UNL     1     -38.581 156.073   1.653  1.00  0.00    +0.171 HD
BRANCH  23  26
ATOM     26  C   UNL     1     -37.759 156.475   3.511  1.00  0.00    +0.043 A 
ATOM     27  C   UNL     1     -37.850 155.193   4.047  1.00  0.00    +0.028 A 
ATOM     28  C   UNL     1     -37.255 157.507   4.313  1.00  0.00    +0.040 A 
ATOM     29  C   UNL     1     -37.432 154.944   5.359  1.00  0.00    +0.023 A 
ATOM     30  C   UNL     1     -36.830 157.273   5.638  1.00  0.00    +0.076 A 
ATOM     31  C   UNL     1     -36.924 155.976   6.150  1.00  0.00    +0.053 A 
ATOM     32 Cl   UNL     1     -36.433 155.585   7.757  1.00  0.00    -0.084 Cl
BRANCH  30  33
ATOM     33  C   UNL     1     -36.292 158.408   6.465  1.00  0.00    +0.417 C 
ATOM     34  F   UNL     1     -37.101 158.723   7.520  1.00  0.00    -0.166 F 
ATOM     35  F   UNL     1     -35.077 158.139   7.017  1.00  0.00    -0.166 F 
ATOM     36  F   UNL     1     -36.153 159.566   5.763  1.00  0.00    -0.166 F 
ENDBRANCH  30  33
ENDBRANCH  23  26
ENDBRANCH   4  20
TORSDOF 6
ENDMDL
MODEL 10
REMARK VINA RESULT:    -9.472      5.212     12.795
REMARK INTER + INTRA:         -13.379
REMARK INTER:                 -13.169
REMARK INTRA:                  -0.211
REMARK UNBOUND:                -0.585
REMARK SMILES CNC(=O)c1cc(Oc2ccc(NC(=O)Nc3ccc(Cl)c(C(F)(F)F)c3)c(F)c2)ccn1
REMARK SMILES IDX 9 1 10 2 11 3 12 4 28 5 29 6 30 7 8 8 7 9 5 10 6 11 33 12
REMARK SMILES IDX 32 13 31 14 3 15 2 16 4 17 1 18 13 20 14 21 15 22 16 23
REMARK SMILES IDX 17 26 18 27 27 28 19 29 22 30 20 31 21 32 23 33 24 34 25 35
REMARK SMILES IDX 26 36
REMARK H PARENT 2 19 13 24 16 25
ROOT
ATOM      1  C   UNL     1     -35.711 153.983   6.456  1.00  0.00    +0.130 A 
ATOM      2  C   UNL     1     -36.586 153.467   5.500  1.00  0.00    +0.049 A 
ATOM      3  C   UNL     1     -37.458 154.321   4.818  1.00  0.00    +0.033 A 
ATOM      4  C   UNL     1     -37.461 155.696   5.087  1.00  0.00    +0.079 A 
ATOM      5  C   UNL     1     -36.534 156.201   6.010  1.00  0.00    +0.150 A 
ATOM      6  F   UNL     1     -36.386 157.520   6.196  1.00  0.00    -0.205 F 
ATOM      7  C   UNL     1     -35.665 155.355   6.697  1.00  0.00    +0.088 A 
ENDROOT
BRANCH   1   8
ATOM      8  O   UNL     1     -34.851 153.101   7.067  1.00  0.00    -0.457 OA
BRANCH   8   9
ATOM      9  C   UNL     1     -35.070 151.762   6.839  1.00  0.00    +0.131 A 
ATOM     10  C   UNL     1     -35.820 149.595   7.448  1.00  0.00    +0.131 A 
ATOM     11  C   UNL     1     -35.600 150.915   7.808  1.00  0.00    +0.081 A 
ATOM     12  N   UNL     1     -35.553 149.085   6.209  1.00  0.00    -0.251 NA
ATOM     13  C   UNL     1     -35.060 149.950   5.296  1.00  0.00    +0.116 A 
ATOM     14  C   UNL     1     -34.813 151.286   5.558  1.00  0.00    +0.067 A 
BRANCH  10  15
ATOM     15  C   UNL     1     -36.392 148.636   8.449  1.00  0.00    +0.269 C 
ATOM     16  N   UNL     1     -37.584 148.060   8.064  1.00  0.00    -0.354 N 
ATOM     17  O   UNL     1     -35.821 148.399   9.507  1.00  0.00    -0.268 OA
ATOM     18  C   UNL     1     -38.217 147.019   8.825  1.00  0.00    +0.143 C 
ATOM     19  H   UNL     1     -37.894 148.270   7.118  1.00  0.00    +0.163 HD
ENDBRANCH  10  15
ENDBRANCH   8   9
ENDBRANCH   1   8
BRANCH   4  20
ATOM     20  N   UNL     1     -38.365 156.501   4.360  1.00  0.00    -0.305 N 
ATOM     21  C   UNL     1     -38.009 157.345   3.314  1.00  0.00    +0.323 C 
ATOM     22  O   UNL     1     -36.863 157.664   3.037  1.00  0.00    -0.248 OA
ATOM     23  N   UNL     1     -39.152 157.797   2.671  1.00  0.00    -0.308 N 
ATOM     24  H   UNL     1     -39.209 156.776   4.841  1.00  0.00    +0.171 HD
ATOM     25  H   UNL     1     -39.979 157.241   2.838  1.00  0.00    +0.171 HD
BRANCH  23  26
ATOM     26  C   UNL     1     -39.231 158.758   1.643  1.00  0.00    +0.043 A 
ATOM     27  C   UNL     1     -39.769 160.032   1.811  1.00  0.00    +0.028 A 
ATOM     28  C   UNL     1     -38.757 158.388   0.378  1.00  0.00    +0.040 A 
ATOM     29  C   UNL     1     -39.821 160.925   0.736  1.00  0.00    +0.023 A 
ATOM     30  C   UNL     1     -38.802 159.277  -0.717  1.00  0.00    +0.076 A 
ATOM     31  C   UNL     1     -39.339 160.552  -0.520  1.00  0.00    +0.053 A 
ATOM     32 Cl   UNL     1     -39.441 161.712  -1.793  1.00  0.00    -0.084 Cl
BRANCH  30  33
ATOM     33  C   UNL     1     -38.279 158.842  -2.058  1.00  0.00    +0.417 C 
ATOM     34  F   UNL     1     -37.451 159.768  -2.629  1.00  0.00    -0.166 F 
ATOM     35  F   UNL     1     -37.545 157.697  -2.002  1.00  0.00    -0.166 F 
ATOM     36  F   UNL     1     -39.262 158.630  -2.975  1.00  0.00    -0.166 F 
ENDBRANCH  30  33
ENDBRANCH  23  26
ENDBRANCH   4  20
TORSDOF 6
ENDMDL
