MODEL 1
REMARK VINA RESULT:   -11.073      0.000      0.000
REMARK INTER + INTRA:         -15.172
REMARK INTER:                 -14.957
REMARK INTRA:                  -0.215
REMARK UNBOUND:                -0.215
REMARK SMILES CNC(=O)c1cc(Oc2ccc(NC(=O)Nc3ccc(Cl)c(C(F)(F)F)c3)cc2)ccn1
REMARK SMILES IDX 9 1 10 2 11 3 12 4 28 5 29 6 8 7 7 8 5 9 6 10 32 11 31 12
REMARK SMILES IDX 30 13 3 14 2 15 4 16 1 17 13 19 14 20 15 21 16 22 17 25
REMARK SMILES IDX 18 26 27 27 19 28 22 29 20 30 21 31 23 32 24 33 25 34 26 35
REMARK H PARENT 2 18 13 23 16 24
ROOT
ATOM      1  C   UNL     1     -40.060 160.865  -0.204  1.00  0.00    +0.127 A 
ATOM      2  C   UNL     1     -38.833 160.776   0.454  1.00  0.00    +0.049 A 
ATOM      3  C   UNL     1     -38.654 159.820   1.457  1.00  0.00    +0.030 A 
ATOM      4  C   UNL     1     -39.697 158.954   1.816  1.00  0.00    +0.043 A 
ATOM      5  C   UNL     1     -40.931 159.078   1.170  1.00  0.00    +0.030 A 
ATOM      6  C   UNL     1     -41.114 160.036   0.168  1.00  0.00    +0.049 A 
ENDROOT
BRANCH   1   7
ATOM      7  O   UNL     1     -40.303 161.808  -1.175  1.00  0.00    -0.457 OA
BRANCH   7   8
ATOM      8  C   UNL     1     -39.518 161.753  -2.305  1.00  0.00    +0.131 A 
ATOM      9  C   UNL     1     -38.565 162.889  -4.155  1.00  0.00    +0.131 A 
ATOM     10  C   UNL     1     -39.329 162.940  -3.000  1.00  0.00    +0.081 A 
ATOM     11  N   UNL     1     -38.008 161.745  -4.653  1.00  0.00    -0.251 NA
ATOM     12  C   UNL     1     -38.240 160.612  -3.959  1.00  0.00    +0.116 A 
ATOM     13  C   UNL     1     -38.984 160.562  -2.793  1.00  0.00    +0.067 A 
BRANCH   9  14
ATOM     14  C   UNL     1     -38.315 164.143  -4.937  1.00  0.00    +0.269 C 
ATOM     15  N   UNL     1     -38.270 163.958  -6.303  1.00  0.00    -0.354 N 
ATOM     16  O   UNL     1     -38.174 165.227  -4.384  1.00  0.00    -0.268 OA
ATOM     17  C   UNL     1     -38.174 165.055  -7.227  1.00  0.00    +0.143 C 
ATOM     18  H   UNL     1     -38.505 163.025  -6.634  1.00  0.00    +0.163 HD
ENDBRANCH   9  14
ENDBRANCH   7   8
ENDBRANCH   1   7
BRANCH   4  19
ATOM     19  N   UNL     1     -39.440 158.023   2.844  1.00  0.00    -0.308 N 
ATOM     20  C   UNL     1     -38.259 157.331   3.074  1.00  0.00    +0.323 C 
ATOM     21  O   UNL     1     -37.210 157.513   2.474  1.00  0.00    -0.248 OA
ATOM     22  N   UNL     1     -38.444 156.399   4.087  1.00  0.00    -0.308 N 
ATOM     23  H   UNL     1     -40.125 157.981   3.582  1.00  0.00    +0.171 HD
ATOM     24  H   UNL     1     -39.404 156.173   4.299  1.00  0.00    +0.171 HD
BRANCH  22  25
ATOM     25  C   UNL     1     -37.464 155.584   4.688  1.00  0.00    +0.043 A 
ATOM     26  C   UNL     1     -37.515 154.191   4.709  1.00  0.00    +0.028 A 
ATOM     27  C   UNL     1     -36.364 156.225   5.275  1.00  0.00    +0.040 A 
ATOM     28  C   UNL     1     -36.493 153.455   5.318  1.00  0.00    +0.023 A 
ATOM     29  C   UNL     1     -35.325 155.496   5.892  1.00  0.00    +0.076 A 
ATOM     30  C   UNL     1     -35.406 154.101   5.907  1.00  0.00    +0.053 A 
ATOM     31 Cl   UNL     1     -34.189 153.119   6.634  1.00  0.00    -0.084 Cl
BRANCH  29  32
ATOM     32  C   UNL     1     -34.165 156.224   6.514  1.00  0.00    +0.417 C 
ATOM     33  F   UNL     1     -33.023 156.137   5.779  1.00  0.00    -0.166 F 
ATOM     34  F   UNL     1     -33.859 155.780   7.763  1.00  0.00    -0.166 F 
ATOM     35  F   UNL     1     -34.397 157.563   6.656  1.00  0.00    -0.166 F 
ENDBRANCH  29  32
ENDBRANCH  22  25
ENDBRANCH   4  19
TORSDOF 6
ENDMDL
MODEL 2
REMARK VINA RESULT:   -10.532      1.805      2.293
REMARK INTER + INTRA:         -14.441
REMARK INTER:                 -14.324
REMARK INTRA:                  -0.118
REMARK UNBOUND:                -0.215
REMARK SMILES CNC(=O)c1cc(Oc2ccc(NC(=O)Nc3ccc(Cl)c(C(F)(F)F)c3)cc2)ccn1
REMARK SMILES IDX 9 1 10 2 11 3 12 4 28 5 29 6 8 7 7 8 5 9 6 10 32 11 31 12
REMARK SMILES IDX 30 13 3 14 2 15 4 16 1 17 13 19 14 20 15 21 16 22 17 25
REMARK SMILES IDX 18 26 27 27 19 28 22 29 20 30 21 31 23 32 24 33 25 34 26 35
REMARK H PARENT 2 18 13 23 16 24
ROOT
ATOM      1  C   UNL     1     -40.132 160.753  -0.302  1.00  0.00    +0.127 A 
ATOM      2  C   UNL     1     -38.857 160.645   0.255  1.00  0.00    +0.049 A 
ATOM      3  C   UNL     1     -38.629 159.730   1.286  1.00  0.00    +0.030 A 
ATOM      4  C   UNL     1     -39.668 158.924   1.772  1.00  0.00    +0.043 A 
ATOM      5  C   UNL     1     -40.946 159.067   1.225  1.00  0.00    +0.030 A 
ATOM      6  C   UNL     1     -41.179 159.984   0.196  1.00  0.00    +0.049 A 
ENDROOT
BRANCH   1   7
ATOM      7  O   UNL     1     -40.422 161.659  -1.296  1.00  0.00    -0.457 OA
BRANCH   7   8
ATOM      8  C   UNL     1     -39.591 161.665  -2.394  1.00  0.00    +0.131 A 
ATOM      9  C   UNL     1     -38.584 162.896  -4.153  1.00  0.00    +0.131 A 
ATOM     10  C   UNL     1     -39.394 162.884  -3.029  1.00  0.00    +0.081 A 
ATOM     11  N   UNL     1     -37.988 161.783  -4.677  1.00  0.00    -0.251 NA
ATOM     12  C   UNL     1     -38.229 160.617  -4.041  1.00  0.00    +0.116 A 
ATOM     13  C   UNL     1     -39.018 160.505  -2.910  1.00  0.00    +0.067 A 
BRANCH   9  14
ATOM     14  C   UNL     1     -38.323 164.186  -4.869  1.00  0.00    +0.269 C 
ATOM     15  N   UNL     1     -38.282 164.072  -6.243  1.00  0.00    -0.354 N 
ATOM     16  O   UNL     1     -38.172 165.239  -4.261  1.00  0.00    -0.268 OA
ATOM     17  C   UNL     1     -38.177 165.214  -7.108  1.00  0.00    +0.143 C 
ATOM     18  H   UNL     1     -38.526 163.160  -6.621  1.00  0.00    +0.163 HD
ENDBRANCH   9  14
ENDBRANCH   7   8
ENDBRANCH   1   7
BRANCH   4  19
ATOM     19  N   UNL     1     -39.358 158.032   2.819  1.00  0.00    -0.308 N 
ATOM     20  C   UNL     1     -38.153 157.378   3.037  1.00  0.00    +0.323 C 
ATOM     21  O   UNL     1     -37.125 157.570   2.404  1.00  0.00    -0.248 OA
ATOM     22  N   UNL     1     -38.286 156.473   4.082  1.00  0.00    -0.308 N 
ATOM     23  H   UNL     1     -40.022 157.994   3.577  1.00  0.00    +0.171 HD
ATOM     24  H   UNL     1     -39.233 156.228   4.327  1.00  0.00    +0.171 HD
BRANCH  22  25
ATOM     25  C   UNL     1     -37.268 155.703   4.680  1.00  0.00    +0.043 A 
ATOM     26  C   UNL     1     -36.021 156.207   5.044  1.00  0.00    +0.028 A 
ATOM     27  C   UNL     1     -37.551 154.355   4.941  1.00  0.00    +0.040 A 
ATOM     28  C   UNL     1     -35.069 155.375   5.644  1.00  0.00    +0.023 A 
ATOM     29  C   UNL     1     -36.601 153.503   5.546  1.00  0.00    +0.076 A 
ATOM     30  C   UNL     1     -35.355 154.032   5.893  1.00  0.00    +0.053 A 
ATOM     31 Cl   UNL     1     -34.127 153.077   6.636  1.00  0.00    -0.084 Cl
BRANCH  29  32
ATOM     32  C   UNL     1     -36.943 152.061   5.804  1.00  0.00    +0.417 C 
ATOM     33  F   UNL     1     -36.872 151.722   7.120  1.00  0.00    -0.166 F 
ATOM     34  F   UNL     1     -36.142 151.191   5.133  1.00  0.00    -0.166 F 
ATOM     35  F   UNL     1     -38.216 151.744   5.421  1.00  0.00    -0.166 F 
ENDBRANCH  29  32
ENDBRANCH  22  25
ENDBRANCH   4  19
TORSDOF 6
ENDMDL
MODEL 3
REMARK VINA RESULT:   -10.498      2.089      2.807
REMARK INTER + INTRA:         -14.395
REMARK INTER:                 -14.307
REMARK INTRA:                  -0.088
REMARK UNBOUND:                -0.215
REMARK SMILES CNC(=O)c1cc(Oc2ccc(NC(=O)Nc3ccc(Cl)c(C(F)(F)F)c3)cc2)ccn1
REMARK SMILES IDX 9 1 10 2 11 3 12 4 28 5 29 6 8 7 7 8 5 9 6 10 32 11 31 12
REMARK SMILES IDX 30 13 3 14 2 15 4 16 1 17 13 19 14 20 15 21 16 22 17 25
REMARK SMILES IDX 18 26 27 27 19 28 22 29 20 30 21 31 23 32 24 33 25 34 26 35
REMARK H PARENT 2 18 13 23 16 24
ROOT
ATOM      1  C   UNL     1     -39.389 160.195  -2.279  1.00  0.00    +0.127 A 
ATOM      2  C   UNL     1     -40.086 160.775  -1.219  1.00  0.00    +0.049 A 
ATOM      3  C   UNL     1     -40.036 160.185   0.047  1.00  0.00    +0.030 A 
ATOM      4  C   UNL     1     -39.298 159.012   0.263  1.00  0.00    +0.043 A 
ATOM      5  C   UNL     1     -38.632 158.426  -0.817  1.00  0.00    +0.030 A 
ATOM      6  C   UNL     1     -38.683 159.012  -2.085  1.00  0.00    +0.049 A 
ENDROOT
BRANCH   1   7
ATOM      7  O   UNL     1     -39.429 160.713  -3.552  1.00  0.00    -0.457 OA
BRANCH   7   8
ATOM      8  C   UNL     1     -39.095 162.041  -3.694  1.00  0.00    +0.131 A 
ATOM      9  C   UNL     1     -38.460 163.818  -5.130  1.00  0.00    +0.131 A 
ATOM     10  C   UNL     1     -38.826 162.490  -4.980  1.00  0.00    +0.081 A 
ATOM     11  N   UNL     1     -38.332 164.697  -4.092  1.00  0.00    -0.251 NA
ATOM     12  C   UNL     1     -38.578 164.209  -2.858  1.00  0.00    +0.116 A 
ATOM     13  C   UNL     1     -38.955 162.902  -2.607  1.00  0.00    +0.067 A 
BRANCH   9  14
ATOM     14  C   UNL     1     -38.174 164.361  -6.497  1.00  0.00    +0.269 C 
ATOM     15  N   UNL     1     -37.927 163.394  -7.449  1.00  0.00    -0.354 N 
ATOM     16  O   UNL     1     -38.174 165.565  -6.722  1.00  0.00    -0.268 OA
ATOM     17  C   UNL     1     -37.765 163.709  -8.842  1.00  0.00    +0.143 C 
ATOM     18  H   UNL     1     -38.060 162.432  -7.150  1.00  0.00    +0.163 HD
ENDBRANCH   9  14
ENDBRANCH   7   8
ENDBRANCH   1   7
BRANCH   4  19
ATOM     19  N   UNL     1     -39.305 158.475   1.567  1.00  0.00    -0.308 N 
ATOM     20  C   UNL     1     -38.222 157.971   2.273  1.00  0.00    +0.323 C 
ATOM     21  O   UNL     1     -37.057 158.022   1.905  1.00  0.00    -0.248 OA
ATOM     22  N   UNL     1     -38.655 157.400   3.463  1.00  0.00    -0.308 N 
ATOM     23  H   UNL     1     -40.147 158.625   2.101  1.00  0.00    +0.171 HD
ATOM     24  H   UNL     1     -39.640 157.190   3.509  1.00  0.00    +0.171 HD
BRANCH  22  25
ATOM     25  C   UNL     1     -37.856 156.884   4.504  1.00  0.00    +0.043 A 
ATOM     26  C   UNL     1     -37.120 157.673   5.384  1.00  0.00    +0.028 A 
ATOM     27  C   UNL     1     -37.831 155.492   4.665  1.00  0.00    +0.040 A 
ATOM     28  C   UNL     1     -36.360 157.081   6.399  1.00  0.00    +0.023 A 
ATOM     29  C   UNL     1     -37.071 154.879   5.685  1.00  0.00    +0.076 A 
ATOM     30  C   UNL     1     -36.334 155.694   6.549  1.00  0.00    +0.053 A 
ATOM     31 Cl   UNL     1     -35.374 155.045   7.826  1.00  0.00    -0.084 Cl
BRANCH  29  32
ATOM     32  C   UNL     1     -37.067 153.381   5.821  1.00  0.00    +0.417 C 
ATOM     33  F   UNL     1     -37.551 152.952   7.019  1.00  0.00    -0.166 F 
ATOM     34  F   UNL     1     -35.831 152.832   5.680  1.00  0.00    -0.166 F 
ATOM     35  F   UNL     1     -37.844 152.764   4.881  1.00  0.00    -0.166 F 
ENDBRANCH  29  32
ENDBRANCH  22  25
ENDBRANCH   4  19
TORSDOF 6
ENDMDL
MODEL 4
REMARK VINA RESULT:   -10.391      6.163     11.713
REMARK INTER + INTRA:         -14.250
REMARK INTER:                 -13.608
REMARK INTRA:                  -0.643
REMARK UNBOUND:                -0.215
REMARK SMILES CNC(=O)c1cc(Oc2ccc(NC(=O)Nc3ccc(Cl)c(C(F)(F)F)c3)cc2)ccn1
REMARK SMILES IDX 9 1 10 2 11 3 12 4 28 5 29 6 8 7 7 8 5 9 6 10 32 11 31 12
REMARK SMILES IDX 30 13 3 14 2 15 4 16 1 17 13 19 14 20 15 21 16 22 17 25
REMARK SMILES IDX 18 26 27 27 19 28 22 29 20 30 21 31 23 32 24 33 25 34 26 35
REMARK H PARENT 2 18 13 23 16 24
ROOT
ATOM      1  C   UNL     1     -38.965 158.012   2.711  1.00  0.00    +0.127 A 
ATOM      2  C   UNL     1     -38.024 157.813   1.700  1.00  0.00    +0.049 A 
ATOM      3  C   UNL     1     -38.241 158.367   0.435  1.00  0.00    +0.030 A 
ATOM      4  C   UNL     1     -39.396 159.115   0.169  1.00  0.00    +0.043 A 
ATOM      5  C   UNL     1     -40.344 159.279   1.183  1.00  0.00    +0.030 A 
ATOM      6  C   UNL     1     -40.132 158.723   2.449  1.00  0.00    +0.049 A 
ENDROOT
BRANCH   1   7
ATOM      7  O   UNL     1     -38.820 157.464   3.964  1.00  0.00    -0.457 OA
BRANCH   7   8
ATOM      8  C   UNL     1     -37.537 157.176   4.372  1.00  0.00    +0.131 A 
ATOM      9  C   UNL     1     -35.970 155.553   5.103  1.00  0.00    +0.131 A 
ATOM     10  C   UNL     1     -37.250 155.848   4.662  1.00  0.00    +0.081 A 
ATOM     11  N   UNL     1     -34.990 156.487   5.285  1.00  0.00    -0.251 NA
ATOM     12  C   UNL     1     -35.323 157.767   5.016  1.00  0.00    +0.116 A 
ATOM     13  C   UNL     1     -36.571 158.161   4.567  1.00  0.00    +0.067 A 
BRANCH   9  14
ATOM     14  C   UNL     1     -35.600 154.134   5.414  1.00  0.00    +0.269 C 
ATOM     15  N   UNL     1     -34.247 153.930   5.592  1.00  0.00    -0.354 N 
ATOM     16  O   UNL     1     -36.447 153.255   5.506  1.00  0.00    -0.268 OA
ATOM     17  C   UNL     1     -33.709 152.670   6.028  1.00  0.00    +0.143 C 
ATOM     18  H   UNL     1     -33.667 154.765   5.591  1.00  0.00    +0.163 HD
ENDBRANCH   9  14
ENDBRANCH   7   8
ENDBRANCH   1   7
BRANCH   4  19
ATOM     19  N   UNL     1     -39.544 159.634  -1.134  1.00  0.00    -0.308 N 
ATOM     20  C   UNL     1     -39.043 160.832  -1.624  1.00  0.00    +0.323 C 
ATOM     21  O   UNL     1     -38.289 161.578  -1.017  1.00  0.00    -0.248 OA
ATOM     22  N   UNL     1     -39.524 161.060  -2.906  1.00  0.00    -0.308 N 
ATOM     23  H   UNL     1     -39.907 158.994  -1.824  1.00  0.00    +0.171 HD
ATOM     24  H   UNL     1     -40.331 160.514  -3.170  1.00  0.00    +0.171 HD
BRANCH  22  25
ATOM     25  C   UNL     1     -39.162 162.103  -3.783  1.00  0.00    +0.043 A 
ATOM     26  C   UNL     1     -39.203 163.454  -3.444  1.00  0.00    +0.028 A 
ATOM     27  C   UNL     1     -38.713 161.743  -5.061  1.00  0.00    +0.040 A 
ATOM     28  C   UNL     1     -38.815 164.427  -4.371  1.00  0.00    +0.023 A 
ATOM     29  C   UNL     1     -38.318 162.713  -6.007  1.00  0.00    +0.076 A 
ATOM     30  C   UNL     1     -38.377 164.062  -5.644  1.00  0.00    +0.053 A 
ATOM     31 Cl   UNL     1     -37.916 165.324  -6.725  1.00  0.00    -0.084 Cl
BRANCH  29  32
ATOM     32  C   UNL     1     -37.847 162.284  -7.370  1.00  0.00    +0.417 C 
ATOM     33  F   UNL     1     -38.538 162.874  -8.384  1.00  0.00    -0.166 F 
ATOM     34  F   UNL     1     -37.931 160.942  -7.569  1.00  0.00    -0.166 F 
ATOM     35  F   UNL     1     -36.537 162.600  -7.599  1.00  0.00    -0.166 F 
ENDBRANCH  29  32
ENDBRANCH  22  25
ENDBRANCH   4  19
TORSDOF 6
ENDMDL
MODEL 5
REMARK VINA RESULT:   -10.333      4.579      7.601
REMARK INTER + INTRA:         -14.172
REMARK INTER:                 -13.744
REMARK INTRA:                  -0.428
REMARK UNBOUND:                -0.215
REMARK SMILES CNC(=O)c1cc(Oc2ccc(NC(=O)Nc3ccc(Cl)c(C(F)(F)F)c3)cc2)ccn1
REMARK SMILES IDX 9 1 10 2 11 3 12 4 28 5 29 6 8 7 7 8 5 9 6 10 32 11 31 12
REMARK SMILES IDX 30 13 3 14 2 15 4 16 1 17 13 19 14 20 15 21 16 22 17 25
REMARK SMILES IDX 18 26 27 27 19 28 22 29 20 30 21 31 23 32 24 33 25 34 26 35
REMARK H PARENT 2 18 13 23 16 24
ROOT
ATOM      1  C   UNL     1     -37.054 162.652  -7.118  1.00  0.00    +0.127 A 
ATOM      2  C   UNL     1     -37.314 163.803  -6.374  1.00  0.00    +0.049 A 
ATOM      3  C   UNL     1     -37.955 163.697  -5.137  1.00  0.00    +0.030 A 
ATOM      4  C   UNL     1     -38.345 162.446  -4.637  1.00  0.00    +0.043 A 
ATOM      5  C   UNL     1     -38.106 161.306  -5.409  1.00  0.00    +0.030 A 
ATOM      6  C   UNL     1     -37.468 161.409  -6.649  1.00  0.00    +0.049 A 
ENDROOT
BRANCH   1   7
ATOM      7  O   UNL     1     -36.456 162.699  -8.356  1.00  0.00    -0.457 OA
BRANCH   7   8
ATOM      8  C   UNL     1     -37.226 163.162  -9.400  1.00  0.00    +0.131 A 
ATOM      9  C   UNL     1     -37.789 164.951 -10.851  1.00  0.00    +0.131 A 
ATOM     10  C   UNL     1     -36.999 164.466  -9.821  1.00  0.00    +0.081 A 
ATOM     11  N   UNL     1     -38.781 164.233 -11.456  1.00  0.00    -0.251 NA
ATOM     12  C   UNL     1     -38.983 162.980 -10.996  1.00  0.00    +0.116 A 
ATOM     13  C   UNL     1     -38.243 162.406  -9.978  1.00  0.00    +0.067 A 
BRANCH   9  14
ATOM     14  C   UNL     1     -37.577 166.346 -11.358  1.00  0.00    +0.269 C 
ATOM     15  N   UNL     1     -36.386 166.917 -10.959  1.00  0.00    -0.354 N 
ATOM     16  O   UNL     1     -38.403 166.902 -12.070  1.00  0.00    -0.268 OA
ATOM     17  C   UNL     1     -35.942 168.192 -11.450  1.00  0.00    +0.143 C 
ATOM     18  H   UNL     1     -35.747 166.307 -10.456  1.00  0.00    +0.163 HD
ENDBRANCH   9  14
ENDBRANCH   7   8
ENDBRANCH   1   7
BRANCH   4  19
ATOM     19  N   UNL     1     -38.994 162.424  -3.385  1.00  0.00    -0.308 N 
ATOM     20  C   UNL     1     -39.353 161.307  -2.645  1.00  0.00    +0.323 C 
ATOM     21  O   UNL     1     -39.054 160.154  -2.921  1.00  0.00    -0.248 OA
ATOM     22  N   UNL     1     -40.103 161.690  -1.540  1.00  0.00    -0.308 N 
ATOM     23  H   UNL     1     -39.053 163.309  -2.904  1.00  0.00    +0.171 HD
ATOM     24  H   UNL     1     -40.495 162.619  -1.583  1.00  0.00    +0.171 HD
BRANCH  22  25
ATOM     25  C   UNL     1     -40.558 160.868  -0.489  1.00  0.00    +0.043 A 
ATOM     26  C   UNL     1     -41.899 160.717  -0.143  1.00  0.00    +0.028 A 
ATOM     27  C   UNL     1     -39.593 160.147   0.228  1.00  0.00    +0.040 A 
ATOM     28  C   UNL     1     -42.268 159.871   0.909  1.00  0.00    +0.023 A 
ATOM     29  C   UNL     1     -39.949 159.290   1.291  1.00  0.00    +0.076 A 
ATOM     30  C   UNL     1     -41.301 159.163   1.623  1.00  0.00    +0.053 A 
ATOM     31 Cl   UNL     1     -41.839 158.141   2.904  1.00  0.00    -0.084 Cl
BRANCH  29  32
ATOM     32  C   UNL     1     -38.881 158.538   2.038  1.00  0.00    +0.417 C 
ATOM     33  F   UNL     1     -39.102 157.195   2.079  1.00  0.00    -0.166 F 
ATOM     34  F   UNL     1     -38.737 158.948   3.327  1.00  0.00    -0.166 F 
ATOM     35  F   UNL     1     -37.644 158.679   1.476  1.00  0.00    -0.166 F 
ENDBRANCH  29  32
ENDBRANCH  22  25
ENDBRANCH   4  19
TORSDOF 6
ENDMDL
MODEL 6
REMARK VINA RESULT:   -10.160      1.451      2.037
REMARK INTER + INTRA:         -13.939
REMARK INTER:                 -14.325
REMARK INTRA:                   0.386
REMARK UNBOUND:                -0.215
REMARK SMILES CNC(=O)c1cc(Oc2ccc(NC(=O)Nc3ccc(Cl)c(C(F)(F)F)c3)cc2)ccn1
REMARK SMILES IDX 9 1 10 2 11 3 12 4 28 5 29 6 8 7 7 8 5 9 6 10 32 11 31 12
REMARK SMILES IDX 30 13 3 14 2 15 4 16 1 17 13 19 14 20 15 21 16 22 17 25
REMARK SMILES IDX 18 26 27 27 19 28 22 29 20 30 21 31 23 32 24 33 25 34 26 35
REMARK H PARENT 2 18 13 23 16 24
ROOT
ATOM      1  C   UNL     1     -39.426 160.139  -2.025  1.00  0.00    +0.127 A 
ATOM      2  C   UNL     1     -40.127 160.682  -0.947  1.00  0.00    +0.049 A 
ATOM      3  C   UNL     1     -40.048 160.071   0.307  1.00  0.00    +0.030 A 
ATOM      4  C   UNL     1     -39.277 158.914   0.494  1.00  0.00    +0.043 A 
ATOM      5  C   UNL     1     -38.607 158.365  -0.603  1.00  0.00    +0.030 A 
ATOM      6  C   UNL     1     -38.687 158.972  -1.860  1.00  0.00    +0.049 A 
ENDROOT
BRANCH   1   7
ATOM      7  O   UNL     1     -39.494 160.678  -3.288  1.00  0.00    -0.457 OA
BRANCH   7   8
ATOM      8  C   UNL     1     -39.133 162.001  -3.420  1.00  0.00    +0.131 A 
ATOM      9  C   UNL     1     -38.447 163.771  -4.840  1.00  0.00    +0.131 A 
ATOM     10  C   UNL     1     -38.841 162.450  -4.701  1.00  0.00    +0.081 A 
ATOM     11  N   UNL     1     -38.314 164.643  -3.796  1.00  0.00    -0.251 NA
ATOM     12  C   UNL     1     -38.583 164.155  -2.568  1.00  0.00    +0.116 A 
ATOM     13  C   UNL     1     -38.987 162.853  -2.327  1.00  0.00    +0.067 A 
BRANCH   9  14
ATOM     14  C   UNL     1     -38.135 164.315  -6.201  1.00  0.00    +0.269 C 
ATOM     15  N   UNL     1     -37.929 163.348  -7.163  1.00  0.00    -0.354 N 
ATOM     16  O   UNL     1     -38.083 165.521  -6.414  1.00  0.00    -0.268 OA
ATOM     17  C   UNL     1     -37.752 163.670  -8.553  1.00  0.00    +0.143 C 
ATOM     18  H   UNL     1     -38.105 162.389  -6.874  1.00  0.00    +0.163 HD
ENDBRANCH   9  14
ENDBRANCH   7   8
ENDBRANCH   1   7
BRANCH   4  19
ATOM     19  N   UNL     1     -39.256 158.354   1.788  1.00  0.00    -0.308 N 
ATOM     20  C   UNL     1     -38.170 157.786   2.439  1.00  0.00    +0.323 C 
ATOM     21  O   UNL     1     -37.020 157.789   2.023  1.00  0.00    -0.248 OA
ATOM     22  N   UNL     1     -38.580 157.214   3.636  1.00  0.00    -0.308 N 
ATOM     23  H   UNL     1     -40.067 158.534   2.359  1.00  0.00    +0.171 HD
ATOM     24  H   UNL     1     -39.572 157.050   3.721  1.00  0.00    +0.171 HD
BRANCH  22  25
ATOM     25  C   UNL     1     -37.765 156.642   4.634  1.00  0.00    +0.043 A 
ATOM     26  C   UNL     1     -38.178 155.618   5.484  1.00  0.00    +0.028 A 
ATOM     27  C   UNL     1     -36.454 157.125   4.749  1.00  0.00    +0.040 A 
ATOM     28  C   UNL     1     -37.301 155.097   6.442  1.00  0.00    +0.023 A 
ATOM     29  C   UNL     1     -35.558 156.609   5.710  1.00  0.00    +0.076 A 
ATOM     30  C   UNL     1     -36.000 155.589   6.557  1.00  0.00    +0.053 A 
ATOM     31 Cl   UNL     1     -34.983 154.891   7.762  1.00  0.00    -0.084 Cl
BRANCH  29  32
ATOM     32  C   UNL     1     -34.161 157.159   5.804  1.00  0.00    +0.417 C 
ATOM     33  F   UNL     1     -33.885 157.713   7.016  1.00  0.00    -0.166 F 
ATOM     34  F   UNL     1     -33.895 158.112   4.871  1.00  0.00    -0.166 F 
ATOM     35  F   UNL     1     -33.203 156.202   5.623  1.00  0.00    -0.166 F 
ENDBRANCH  29  32
ENDBRANCH  22  25
ENDBRANCH   4  19
TORSDOF 6
ENDMDL
MODEL 7
REMARK VINA RESULT:   -10.145      6.102     11.534
REMARK INTER + INTRA:         -13.919
REMARK INTER:                 -13.689
REMARK INTRA:                  -0.230
REMARK UNBOUND:                -0.215
REMARK SMILES CNC(=O)c1cc(Oc2ccc(NC(=O)Nc3ccc(Cl)c(C(F)(F)F)c3)cc2)ccn1
REMARK SMILES IDX 9 1 10 2 11 3 12 4 28 5 29 6 8 7 7 8 5 9 6 10 32 11 31 12
REMARK SMILES IDX 30 13 3 14 2 15 4 16 1 17 13 19 14 20 15 21 16 22 17 25
REMARK SMILES IDX 18 26 27 27 19 28 22 29 20 30 21 31 23 32 24 33 25 34 26 35
REMARK H PARENT 2 18 13 23 16 24
ROOT
ATOM      1  C   UNL     1     -38.886 157.815   2.804  1.00  0.00    +0.127 A 
ATOM      2  C   UNL     1     -37.914 158.089   1.842  1.00  0.00    +0.049 A 
ATOM      3  C   UNL     1     -38.216 158.947   0.780  1.00  0.00    +0.030 A 
ATOM      4  C   UNL     1     -39.486 159.529   0.668  1.00  0.00    +0.043 A 
ATOM      5  C   UNL     1     -40.458 159.219   1.623  1.00  0.00    +0.030 A 
ATOM      6  C   UNL     1     -40.162 158.358   2.684  1.00  0.00    +0.049 A 
ENDROOT
BRANCH   1   7
ATOM      7  O   UNL     1     -38.657 156.953   3.851  1.00  0.00    -0.457 OA
BRANCH   7   8
ATOM      8  C   UNL     1     -37.468 157.101   4.530  1.00  0.00    +0.131 A 
ATOM      9  C   UNL     1     -35.479 156.107   5.353  1.00  0.00    +0.131 A 
ATOM     10  C   UNL     1     -36.663 155.976   4.646  1.00  0.00    +0.081 A 
ATOM     11  N   UNL     1     -35.071 157.266   5.952  1.00  0.00    -0.251 NA
ATOM     12  C   UNL     1     -35.897 158.326   5.834  1.00  0.00    +0.116 A 
ATOM     13  C   UNL     1     -37.097 158.295   5.145  1.00  0.00    +0.067 A 
BRANCH   9  14
ATOM     14  C   UNL     1     -34.563 154.930   5.496  1.00  0.00    +0.269 C 
ATOM     15  N   UNL     1     -35.198 153.708   5.425  1.00  0.00    -0.354 N 
ATOM     16  O   UNL     1     -33.356 155.071   5.652  1.00  0.00    -0.268 OA
ATOM     17  C   UNL     1     -34.477 152.464   5.406  1.00  0.00    +0.143 C 
ATOM     18  H   UNL     1     -36.187 153.733   5.189  1.00  0.00    +0.163 HD
ENDBRANCH   9  14
ENDBRANCH   7   8
ENDBRANCH   1   7
BRANCH   4  19
ATOM     19  N   UNL     1     -39.713 160.377  -0.437  1.00  0.00    -0.308 N 
ATOM     20  C   UNL     1     -39.044 160.369  -1.652  1.00  0.00    +0.323 C 
ATOM     21  O   UNL     1     -38.217 159.535  -1.995  1.00  0.00    -0.248 OA
ATOM     22  N   UNL     1     -39.452 161.448  -2.426  1.00  0.00    -0.308 N 
ATOM     23  H   UNL     1     -40.554 160.932  -0.401  1.00  0.00    +0.171 HD
ATOM     24  H   UNL     1     -39.921 162.187  -1.926  1.00  0.00    +0.171 HD
BRANCH  22  25
ATOM     25  C   UNL     1     -39.094 161.727  -3.761  1.00  0.00    +0.043 A 
ATOM     26  C   UNL     1     -39.020 160.763  -4.765  1.00  0.00    +0.028 A 
ATOM     27  C   UNL     1     -38.823 163.062  -4.089  1.00  0.00    +0.040 A 
ATOM     28  C   UNL     1     -38.667 161.126  -6.069  1.00  0.00    +0.023 A 
ATOM     29  C   UNL     1     -38.467 163.445  -5.400  1.00  0.00    +0.076 A 
ATOM     30  C   UNL     1     -38.391 162.457  -6.386  1.00  0.00    +0.053 A 
ATOM     31 Cl   UNL     1     -37.965 162.820  -8.017  1.00  0.00    -0.084 Cl
BRANCH  29  32
ATOM     32  C   UNL     1     -38.179 164.889  -5.709  1.00  0.00    +0.417 C 
ATOM     33  F   UNL     1     -38.887 165.359  -6.771  1.00  0.00    -0.166 F 
ATOM     34  F   UNL     1     -36.868 165.130  -5.977  1.00  0.00    -0.166 F 
ATOM     35  F   UNL     1     -38.493 165.723  -4.672  1.00  0.00    -0.166 F 
ENDBRANCH  29  32
ENDBRANCH  22  25
ENDBRANCH   4  19
TORSDOF 6
ENDMDL
MODEL 8
REMARK VINA RESULT:    -9.977      5.897      9.197
REMARK INTER + INTRA:         -13.692
REMARK INTER:                 -13.407
REMARK INTRA:                  -0.286
REMARK UNBOUND:                -0.215
REMARK SMILES CNC(=O)c1cc(Oc2ccc(NC(=O)Nc3ccc(Cl)c(C(F)(F)F)c3)cc2)ccn1
REMARK SMILES IDX 9 1 10 2 11 3 12 4 28 5 29 6 8 7 7 8 5 9 6 10 32 11 31 12
REMARK SMILES IDX 30 13 3 14 2 15 4 16 1 17 13 19 14 20 15 21 16 22 17 25
REMARK SMILES IDX 18 26 27 27 19 28 22 29 20 30 21 31 23 32 24 33 25 34 26 35
REMARK H PARENT 2 18 13 23 16 24
ROOT
ATOM      1  C   UNL     1     -37.983 163.969  -8.537  1.00  0.00    +0.127 A 
ATOM      2  C   UNL     1     -38.270 165.036  -7.685  1.00  0.00    +0.049 A 
ATOM      3  C   UNL     1     -38.377 164.811  -6.309  1.00  0.00    +0.030 A 
ATOM      4  C   UNL     1     -38.208 163.525  -5.777  1.00  0.00    +0.043 A 
ATOM      5  C   UNL     1     -37.953 162.462  -6.649  1.00  0.00    +0.030 A 
ATOM      6  C   UNL     1     -37.848 162.683  -8.025  1.00  0.00    +0.049 A 
ENDROOT
BRANCH   1   7
ATOM      7  O   UNL     1     -37.898 164.125  -9.901  1.00  0.00    -0.457 OA
BRANCH   7   8
ATOM      8  C   UNL     1     -36.663 164.451 -10.414  1.00  0.00    +0.131 A 
ATOM      9  C   UNL     1     -35.212 166.121 -11.267  1.00  0.00    +0.131 A 
ATOM     10  C   UNL     1     -36.441 165.787 -10.722  1.00  0.00    +0.081 A 
ATOM     11  N   UNL     1     -34.222 165.217 -11.533  1.00  0.00    -0.251 NA
ATOM     12  C   UNL     1     -34.493 163.928 -11.241  1.00  0.00    +0.116 A 
ATOM     13  C   UNL     1     -35.687 163.496 -10.691  1.00  0.00    +0.067 A 
BRANCH   9  14
ATOM     14  C   UNL     1     -34.910 167.550 -11.604  1.00  0.00    +0.269 C 
ATOM     15  N   UNL     1     -33.590 167.907 -11.426  1.00  0.00    -0.354 N 
ATOM     16  O   UNL     1     -35.781 168.312 -12.008  1.00  0.00    -0.268 OA
ATOM     17  C   UNL     1     -33.079 169.191 -11.821  1.00  0.00    +0.143 C 
ATOM     18  H   UNL     1     -32.954 167.151 -11.186  1.00  0.00    +0.163 HD
ENDBRANCH   9  14
ENDBRANCH   7   8
ENDBRANCH   1   7
BRANCH   4  19
ATOM     19  N   UNL     1     -38.340 163.381  -4.381  1.00  0.00    -0.308 N 
ATOM     20  C   UNL     1     -38.720 162.241  -3.686  1.00  0.00    +0.323 C 
ATOM     21  O   UNL     1     -38.891 161.138  -4.186  1.00  0.00    -0.248 OA
ATOM     22  N   UNL     1     -38.877 162.536  -2.338  1.00  0.00    -0.308 N 
ATOM     23  H   UNL     1     -37.961 164.131  -3.823  1.00  0.00    +0.171 HD
ATOM     24  H   UNL     1     -38.968 163.516  -2.117  1.00  0.00    +0.171 HD
BRANCH  22  25
ATOM     25  C   UNL     1     -39.144 161.632  -1.291  1.00  0.00    +0.043 A 
ATOM     26  C   UNL     1     -38.158 160.958  -0.573  1.00  0.00    +0.028 A 
ATOM     27  C   UNL     1     -40.487 161.426  -0.944  1.00  0.00    +0.040 A 
ATOM     28  C   UNL     1     -38.508 160.084   0.461  1.00  0.00    +0.023 A 
ATOM     29  C   UNL     1     -40.856 160.548   0.098  1.00  0.00    +0.076 A 
ATOM     30  C   UNL     1     -39.847 159.878   0.795  1.00  0.00    +0.053 A 
ATOM     31 Cl   UNL     1     -40.192 158.786   2.084  1.00  0.00    -0.084 Cl
BRANCH  29  32
ATOM     32  C   UNL     1     -42.309 160.353   0.434  1.00  0.00    +0.417 C 
ATOM     33  F   UNL     1     -42.567 159.144   1.004  1.00  0.00    -0.166 F 
ATOM     34  F   UNL     1     -43.129 160.458  -0.645  1.00  0.00    -0.166 F 
ATOM     35  F   UNL     1     -42.773 161.276   1.329  1.00  0.00    -0.166 F 
ENDBRANCH  29  32
ENDBRANCH  22  25
ENDBRANCH   4  19
TORSDOF 6
ENDMDL
MODEL 9
REMARK VINA RESULT:    -9.884      5.525     11.696
REMARK INTER + INTRA:         -13.566
REMARK INTER:                 -12.811
REMARK INTRA:                  -0.755
REMARK UNBOUND:                -0.215
REMARK SMILES CNC(=O)c1cc(Oc2ccc(NC(=O)Nc3ccc(Cl)c(C(F)(F)F)c3)cc2)ccn1
REMARK SMILES IDX 9 1 10 2 11 3 12 4 28 5 29 6 8 7 7 8 5 9 6 10 32 11 31 12
REMARK SMILES IDX 30 13 3 14 2 15 4 16 1 17 13 19 14 20 15 21 16 22 17 25
REMARK SMILES IDX 18 26 27 27 19 28 22 29 20 30 21 31 23 32 24 33 25 34 26 35
REMARK H PARENT 2 18 13 23 16 24
ROOT
ATOM      1  C   UNL     1     -36.999 156.370   5.695  1.00  0.00    +0.127 A 
ATOM      2  C   UNL     1     -37.844 155.803   4.741  1.00  0.00    +0.049 A 
ATOM      3  C   UNL     1     -38.377 156.603   3.726  1.00  0.00    +0.030 A 
ATOM      4  C   UNL     1     -38.079 157.972   3.661  1.00  0.00    +0.043 A 
ATOM      5  C   UNL     1     -37.257 158.531   4.644  1.00  0.00    +0.030 A 
ATOM      6  C   UNL     1     -36.724 157.734   5.662  1.00  0.00    +0.049 A 
ENDROOT
BRANCH   1   7
ATOM      7  O   UNL     1     -36.472 155.639   6.734  1.00  0.00    -0.457 OA
BRANCH   7   8
ATOM      8  C   UNL     1     -35.511 154.707   6.413  1.00  0.00    +0.131 A 
ATOM      9  C   UNL     1     -34.937 152.427   6.104  1.00  0.00    +0.131 A 
ATOM     10  C   UNL     1     -35.904 153.376   6.395  1.00  0.00    +0.081 A 
ATOM     11  N   UNL     1     -33.627 152.725   5.853  1.00  0.00    -0.251 NA
ATOM     12  C   UNL     1     -33.286 154.029   5.906  1.00  0.00    +0.116 A 
ATOM     13  C   UNL     1     -34.179 155.048   6.184  1.00  0.00    +0.067 A 
BRANCH   9  14
ATOM     14  C   UNL     1     -35.308 150.976   6.055  1.00  0.00    +0.269 C 
ATOM     15  N   UNL     1     -34.237 150.115   6.165  1.00  0.00    -0.354 N 
ATOM     16  O   UNL     1     -36.473 150.616   5.935  1.00  0.00    -0.268 OA
ATOM     17  C   UNL     1     -34.401 148.691   6.274  1.00  0.00    +0.143 C 
ATOM     18  H   UNL     1     -33.338 150.546   6.364  1.00  0.00    +0.163 HD
ENDBRANCH   9  14
ENDBRANCH   7   8
ENDBRANCH   1   7
BRANCH   4  19
ATOM     19  N   UNL     1     -38.663 158.711   2.612  1.00  0.00    -0.308 N 
ATOM     20  C   UNL     1     -38.314 158.684   1.269  1.00  0.00    +0.323 C 
ATOM     21  O   UNL     1     -37.507 157.915   0.768  1.00  0.00    -0.248 OA
ATOM     22  N   UNL     1     -39.019 159.659   0.575  1.00  0.00    -0.308 N 
ATOM     23  H   UNL     1     -39.528 159.181   2.833  1.00  0.00    +0.171 HD
ATOM     24  H   UNL     1     -39.434 160.381   1.144  1.00  0.00    +0.171 HD
BRANCH  22  25
ATOM     25  C   UNL     1     -39.032 159.876  -0.818  1.00  0.00    +0.043 A 
ATOM     26  C   UNL     1     -39.099 158.856  -1.764  1.00  0.00    +0.028 A 
ATOM     27  C   UNL     1     -38.999 161.205  -1.262  1.00  0.00    +0.040 A 
ATOM     28  C   UNL     1     -39.118 159.158  -3.130  1.00  0.00    +0.023 A 
ATOM     29  C   UNL     1     -39.018 161.526  -2.636  1.00  0.00    +0.076 A 
ATOM     30  C   UNL     1     -39.077 160.484  -3.565  1.00  0.00    +0.053 A 
ATOM     31 Cl   UNL     1     -39.106 160.770  -5.265  1.00  0.00    -0.084 Cl
BRANCH  29  32
ATOM     32  C   UNL     1     -38.977 162.966  -3.071  1.00  0.00    +0.417 C 
ATOM     33  F   UNL     1     -38.814 163.833  -2.033  1.00  0.00    -0.166 F 
ATOM     34  F   UNL     1     -40.096 163.359  -3.735  1.00  0.00    -0.166 F 
ATOM     35  F   UNL     1     -37.942 163.231  -3.923  1.00  0.00    -0.166 F 
ENDBRANCH  29  32
ENDBRANCH  22  25
ENDBRANCH   4  19
TORSDOF 6
ENDMDL
MODEL 10
REMARK VINA RESULT:    -9.833      5.610     11.764
REMARK INTER + INTRA:         -13.498
REMARK INTER:                 -12.403
REMARK INTRA:                  -1.094
REMARK UNBOUND:                -0.215
REMARK SMILES CNC(=O)c1cc(Oc2ccc(NC(=O)Nc3ccc(Cl)c(C(F)(F)F)c3)cc2)ccn1
REMARK SMILES IDX 9 1 10 2 11 3 12 4 28 5 29 6 8 7 7 8 5 9 6 10 32 11 31 12
REMARK SMILES IDX 30 13 3 14 2 15 4 16 1 17 13 19 14 20 15 21 16 22 17 25
REMARK SMILES IDX 18 26 27 27 19 28 22 29 20 30 21 31 23 32 24 33 25 34 26 35
REMARK H PARENT 2 18 13 23 16 24
ROOT
ATOM      1  C   UNL     1     -34.670 154.006   6.204  1.00  0.00    +0.127 A 
ATOM      2  C   UNL     1     -35.948 154.290   6.686  1.00  0.00    +0.049 A 
ATOM      3  C   UNL     1     -36.661 155.371   6.160  1.00  0.00    +0.030 A 
ATOM      4  C   UNL     1     -36.102 156.179   5.160  1.00  0.00    +0.043 A 
ATOM      5  C   UNL     1     -34.808 155.901   4.711  1.00  0.00    +0.030 A 
ATOM      6  C   UNL     1     -34.091 154.822   5.237  1.00  0.00    +0.049 A 
ENDROOT
BRANCH   1   7
ATOM      7  O   UNL     1     -33.910 152.976   6.707  1.00  0.00    -0.457 OA
BRANCH   7   8
ATOM      8  C   UNL     1     -34.483 151.724   6.708  1.00  0.00    +0.131 A 
ATOM      9  C   UNL     1     -35.301 149.881   5.460  1.00  0.00    +0.131 A 
ATOM     10  C   UNL     1     -34.696 151.127   5.472  1.00  0.00    +0.081 A 
ATOM     11  N   UNL     1     -35.710 149.220   6.584  1.00  0.00    -0.251 NA
ATOM     12  C   UNL     1     -35.506 149.849   7.759  1.00  0.00    +0.116 A 
ATOM     13  C   UNL     1     -34.907 151.091   7.874  1.00  0.00    +0.067 A 
BRANCH   9  14
ATOM     14  C   UNL     1     -35.541 149.182   4.156  1.00  0.00    +0.269 C 
ATOM     15  N   UNL     1     -34.508 149.306   3.250  1.00  0.00    -0.354 N 
ATOM     16  O   UNL     1     -36.572 148.556   3.944  1.00  0.00    -0.268 OA
ATOM     17  C   UNL     1     -34.491 148.598   1.999  1.00  0.00    +0.143 C 
ATOM     18  H   UNL     1     -33.668 149.765   3.594  1.00  0.00    +0.163 HD
ENDBRANCH   9  14
ENDBRANCH   7   8
ENDBRANCH   1   7
BRANCH   4  19
ATOM     19  N   UNL     1     -36.882 157.255   4.688  1.00  0.00    -0.308 N 
ATOM     20  C   UNL     1     -37.786 157.240   3.635  1.00  0.00    +0.323 C 
ATOM     21  O   UNL     1     -38.130 156.242   3.019  1.00  0.00    -0.248 OA
ATOM     22  N   UNL     1     -38.244 158.526   3.383  1.00  0.00    -0.308 N 
ATOM     23  H   UNL     1     -36.909 158.072   5.279  1.00  0.00    +0.171 HD
ATOM     24  H   UNL     1     -37.686 159.270   3.775  1.00  0.00    +0.171 HD
BRANCH  22  25
ATOM     25  C   UNL     1     -39.250 158.913   2.474  1.00  0.00    +0.043 A 
ATOM     26  C   UNL     1     -40.610 158.686   2.675  1.00  0.00    +0.028 A 
ATOM     27  C   UNL     1     -38.845 159.588   1.315  1.00  0.00    +0.040 A 
ATOM     28  C   UNL     1     -41.546 159.112   1.727  1.00  0.00    +0.023 A 
ATOM     29  C   UNL     1     -39.777 160.026   0.349  1.00  0.00    +0.076 A 
ATOM     30  C   UNL     1     -41.135 159.777   0.571  1.00  0.00    +0.053 A 
ATOM     31 Cl   UNL     1     -42.352 160.270  -0.546  1.00  0.00    -0.084 Cl
BRANCH  29  32
ATOM     32  C   UNL     1     -39.300 160.743  -0.884  1.00  0.00    +0.417 C 
ATOM     33  F   UNL     1     -39.681 162.049  -0.924  1.00  0.00    -0.166 F 
ATOM     34  F   UNL     1     -39.736 160.173  -2.039  1.00  0.00    -0.166 F 
ATOM     35  F   UNL     1     -37.937 160.765  -0.987  1.00  0.00    -0.166 F 
ENDBRANCH  29  32
ENDBRANCH  22  25
ENDBRANCH   4  19
TORSDOF 6
ENDMDL
