MODEL 1
REMARK VINA RESULT:    -9.614      0.000      0.000
REMARK INTER + INTRA:         -13.190
REMARK INTER:                 -12.706
REMARK INTRA:                  -0.484
REMARK UNBOUND:                -0.484
REMARK SMILES Cc1ccc(Nc2nccc(N(C)c3ccc4c(C)n(C)nc4c3)n2)cc1S(N)(=O)=O
REMARK SMILES IDX 6 1 5 3 2 4 3 5 27 6 4 7 26 8 1 9 28 10 30 11 31 12 29 13
REMARK SMILES IDX 7 16 8 17 25 18 9 19 11 20 10 21 12 22 13 23 14 24 15 25
REMARK SMILES IDX 24 26 16 27 23 28 17 29 22 30 18 31 20 32 19 33 21 34
REMARK H PARENT 6 2 29 14 29 15
ROOT
ATOM      1  N   UNL     1      -6.343   3.701 -17.686  1.00  0.00    -0.324 N 
ATOM      2  H   UNL     1      -5.723   3.744 -18.484  1.00  0.00    +0.170 HD
ENDROOT
BRANCH   1   3
ATOM      3  C   UNL     1      -6.038   2.780 -16.681  1.00  0.00    +0.042 A 
ATOM      4  C   UNL     1      -5.506   1.002 -14.513  1.00  0.00    -0.031 A 
ATOM      5  C   UNL     1      -5.612   2.384 -14.307  1.00  0.00    +0.007 A 
ATOM      6  C   UNL     1      -5.661   0.521 -15.824  1.00  0.00    +0.087 A 
ATOM      7  C   UNL     1      -5.881   3.252 -15.371  1.00  0.00    +0.026 A 
ATOM      8  C   UNL     1      -5.928   1.404 -16.888  1.00  0.00    +0.048 A 
ATOM      9  C   UNL     1      -5.205   0.129 -13.327  1.00  0.00    +0.046 C 
BRANCH   6  10
ATOM     10  S   UNL     1      -5.535  -1.215 -16.223  1.00  0.00    +0.238 S 
ATOM     11  O   UNL     1      -6.726  -1.899 -15.775  1.00  0.00    -0.207 OA
ATOM     12  O   UNL     1      -4.214  -1.689 -15.881  1.00  0.00    -0.207 OA
BRANCH  10  13
ATOM     13  N   UNL     1      -5.626  -1.174 -17.906  1.00  0.00    -0.225 NA
ATOM     14  H   UNL     1      -4.907  -1.739 -18.356  1.00  0.00    +0.137 HD
ATOM     15  H   UNL     1      -5.622  -0.203 -18.219  1.00  0.00    +0.137 HD
ENDBRANCH  10  13
ENDBRANCH   6  10
ENDBRANCH   1   3
BRANCH   1  16
ATOM     16  C   UNL     1      -7.438   4.520 -17.949  1.00  0.00    +0.229 A 
ATOM     17  N   UNL     1      -7.487   5.317 -19.017  1.00  0.00    -0.221 NA
ATOM     18  N   UNL     1      -8.431   4.434 -17.052  1.00  0.00    -0.195 NA
ATOM     19  C   UNL     1      -8.588   6.068 -19.158  1.00  0.00    +0.119 A 
ATOM     20  C   UNL     1      -9.539   5.193 -17.192  1.00  0.00    +0.138 A 
ATOM     21  C   UNL     1      -9.642   6.043 -18.276  1.00  0.00    +0.067 A 
BRANCH  20  22
ATOM     22  N   UNL     1     -10.563   5.067 -16.225  1.00  0.00    -0.329 N 
ATOM     23  C   UNL     1     -11.701   5.984 -16.270  1.00  0.00    +0.152 C 
BRANCH  22  24
ATOM     24  C   UNL     1     -10.682   3.983 -15.303  1.00  0.00    +0.044 A 
ATOM     25  C   UNL     1      -9.775   2.863 -15.381  1.00  0.00    +0.027 A 
ATOM     26  C   UNL     1     -11.696   4.034 -14.308  1.00  0.00    +0.057 A 
ATOM     27  C   UNL     1      -9.797   1.736 -14.528  1.00  0.00    +0.014 A 
ATOM     28  C   UNL     1     -11.742   2.929 -13.443  1.00  0.00    +0.095 A 
ATOM     29  C   UNL     1     -10.811   1.840 -13.584  1.00  0.00    +0.023 A 
ATOM     30  N   UNL     1     -12.569   2.672 -12.417  1.00  0.00    -0.173 NA
ATOM     31  C   UNL     1     -11.106   0.919 -12.607  1.00  0.00    +0.043 A 
ATOM     32  N   UNL     1     -12.167   1.479 -11.934  1.00  0.00    -0.272 N 
ATOM     33  C   UNL     1     -10.515  -0.390 -12.242  1.00  0.00    +0.067 C 
ATOM     34  C   UNL     1     -12.868   0.916 -10.804  1.00  0.00    +0.174 C 
ENDBRANCH  22  24
ENDBRANCH  20  22
ENDBRANCH   1  16
TORSDOF 6
ENDMDL
MODEL 2
REMARK VINA RESULT:    -9.590      0.962      1.561
REMARK INTER + INTRA:         -13.158
REMARK INTER:                 -12.542
REMARK INTRA:                  -0.616
REMARK UNBOUND:                -0.484
REMARK SMILES Cc1ccc(Nc2nccc(N(C)c3ccc4c(C)n(C)nc4c3)n2)cc1S(N)(=O)=O
REMARK SMILES IDX 6 1 5 3 2 4 3 5 27 6 4 7 26 8 1 9 28 10 30 11 31 12 29 13
REMARK SMILES IDX 7 16 8 17 25 18 9 19 11 20 10 21 12 22 13 23 14 24 15 25
REMARK SMILES IDX 24 26 16 27 23 28 17 29 22 30 18 31 20 32 19 33 21 34
REMARK H PARENT 6 2 29 14 29 15
ROOT
ATOM      1  N   UNL     1      -6.350   4.029 -17.674  1.00  0.00    -0.324 N 
ATOM      2  H   UNL     1      -5.665   4.159 -18.406  1.00  0.00    +0.170 HD
ENDROOT
BRANCH   1   3
ATOM      3  C   UNL     1      -6.067   3.083 -16.686  1.00  0.00    +0.042 A 
ATOM      4  C   UNL     1      -5.569   1.258 -14.549  1.00  0.00    -0.031 A 
ATOM      5  C   UNL     1      -5.581   2.642 -14.332  1.00  0.00    +0.007 A 
ATOM      6  C   UNL     1      -5.801   0.798 -15.856  1.00  0.00    +0.087 A 
ATOM      7  C   UNL     1      -5.834   3.534 -15.380  1.00  0.00    +0.026 A 
ATOM      8  C   UNL     1      -6.050   1.705 -16.904  1.00  0.00    +0.048 A 
ATOM      9  C   UNL     1      -5.280   0.359 -13.379  1.00  0.00    +0.046 C 
BRANCH   6  10
ATOM     10  S   UNL     1      -5.798  -0.938 -16.269  1.00  0.00    +0.238 S 
ATOM     11  O   UNL     1      -7.028  -1.544 -15.813  1.00  0.00    -0.207 OA
ATOM     12  O   UNL     1      -4.509  -1.504 -15.946  1.00  0.00    -0.207 OA
BRANCH  10  13
ATOM     13  N   UNL     1      -5.905  -0.878 -17.951  1.00  0.00    -0.225 NA
ATOM     14  H   UNL     1      -5.853   0.071 -18.318  1.00  0.00    +0.137 HD
ATOM     15  H   UNL     1      -6.743  -1.375 -18.252  1.00  0.00    +0.137 HD
ENDBRANCH  10  13
ENDBRANCH   6  10
ENDBRANCH   1   3
BRANCH   1  16
ATOM     16  C   UNL     1      -7.477   4.778 -18.004  1.00  0.00    +0.229 A 
ATOM     17  N   UNL     1      -7.530   5.535 -19.100  1.00  0.00    -0.221 NA
ATOM     18  N   UNL     1      -8.497   4.667 -17.139  1.00  0.00    -0.195 NA
ATOM     19  C   UNL     1      -8.664   6.218 -19.305  1.00  0.00    +0.119 A 
ATOM     20  C   UNL     1      -9.639   5.357 -17.344  1.00  0.00    +0.138 A 
ATOM     21  C   UNL     1      -9.748   6.165 -18.460  1.00  0.00    +0.067 A 
BRANCH  20  22
ATOM     22  N   UNL     1     -10.689   5.207 -16.410  1.00  0.00    -0.329 N 
ATOM     23  C   UNL     1     -11.904   6.003 -16.572  1.00  0.00    +0.152 C 
BRANCH  22  24
ATOM     24  C   UNL     1     -10.748   4.191 -15.408  1.00  0.00    +0.044 A 
ATOM     25  C   UNL     1     -11.777   4.231 -14.396  1.00  0.00    +0.027 A 
ATOM     26  C   UNL     1      -9.788   3.143 -15.434  1.00  0.00    +0.057 A 
ATOM     27  C   UNL     1     -11.933   3.285 -13.358  1.00  0.00    +0.014 A 
ATOM     28  C   UNL     1      -9.919   2.186 -14.415  1.00  0.00    +0.095 A 
ATOM     29  C   UNL     1     -10.965   2.292 -13.431  1.00  0.00    +0.023 A 
ATOM     30  N   UNL     1      -9.183   1.092 -14.160  1.00  0.00    -0.173 NA
ATOM     31  C   UNL     1     -10.833   1.224 -12.576  1.00  0.00    +0.043 A 
ATOM     32  N   UNL     1      -9.750   0.536 -13.071  1.00  0.00    -0.272 N 
ATOM     33  C   UNL     1     -11.595   0.787 -11.382  1.00  0.00    +0.067 C 
ATOM     34  C   UNL     1      -9.181  -0.680 -12.537  1.00  0.00    +0.174 C 
ENDBRANCH  22  24
ENDBRANCH  20  22
ENDBRANCH   1  16
TORSDOF 6
ENDMDL
MODEL 3
REMARK VINA RESULT:    -9.508      2.114      2.986
REMARK INTER + INTRA:         -13.049
REMARK INTER:                 -12.287
REMARK INTRA:                  -0.762
REMARK UNBOUND:                -0.484
REMARK SMILES Cc1ccc(Nc2nccc(N(C)c3ccc4c(C)n(C)nc4c3)n2)cc1S(N)(=O)=O
REMARK SMILES IDX 6 1 5 3 2 4 3 5 27 6 4 7 26 8 1 9 28 10 30 11 31 12 29 13
REMARK SMILES IDX 7 16 8 17 25 18 9 19 11 20 10 21 12 22 13 23 14 24 15 25
REMARK SMILES IDX 24 26 16 27 23 28 17 29 22 30 18 31 20 32 19 33 21 34
REMARK H PARENT 6 2 29 14 29 15
ROOT
ATOM      1  N   UNL     1      -7.838   0.867 -17.115  1.00  0.00    -0.324 N 
ATOM      2  H   UNL     1      -8.560   0.451 -17.688  1.00  0.00    +0.170 HD
ENDROOT
BRANCH   1   3
ATOM      3  C   UNL     1      -7.050   0.007 -16.346  1.00  0.00    +0.042 A 
ATOM      4  C   UNL     1      -5.300  -1.699 -14.871  1.00  0.00    -0.031 A 
ATOM      5  C   UNL     1      -5.081  -1.437 -16.230  1.00  0.00    +0.007 A 
ATOM      6  C   UNL     1      -6.416  -1.101 -14.260  1.00  0.00    +0.087 A 
ATOM      7  C   UNL     1      -5.937  -0.594 -16.948  1.00  0.00    +0.026 A 
ATOM      8  C   UNL     1      -7.272  -0.258 -14.993  1.00  0.00    +0.048 A 
ATOM      9  C   UNL     1      -4.348  -2.622 -14.164  1.00  0.00    +0.046 C 
BRANCH   6  10
ATOM     10  S   UNL     1      -6.815  -1.365 -12.540  1.00  0.00    +0.238 S 
ATOM     11  O   UNL     1      -5.773  -0.802 -11.713  1.00  0.00    -0.207 OA
ATOM     12  O   UNL     1      -7.275  -2.722 -12.359  1.00  0.00    -0.207 OA
BRANCH  10  13
ATOM     13  N   UNL     1      -8.154  -0.358 -12.353  1.00  0.00    -0.225 NA
ATOM     14  H   UNL     1      -8.093   0.234 -11.526  1.00  0.00    +0.137 HD
ATOM     15  H   UNL     1      -9.004  -0.923 -12.376  1.00  0.00    +0.137 HD
ENDBRANCH  10  13
ENDBRANCH   6  10
ENDBRANCH   1   3
BRANCH   1  16
ATOM     16  C   UNL     1      -7.982   2.250 -17.179  1.00  0.00    +0.229 A 
ATOM     17  N   UNL     1      -7.128   3.022 -17.853  1.00  0.00    -0.221 NA
ATOM     18  N   UNL     1      -9.045   2.734 -16.521  1.00  0.00    -0.195 NA
ATOM     19  C   UNL     1      -7.364   4.340 -17.833  1.00  0.00    +0.119 A 
ATOM     20  C   UNL     1      -9.282   4.064 -16.499  1.00  0.00    +0.138 A 
ATOM     21  C   UNL     1      -8.425   4.913 -17.173  1.00  0.00    +0.067 A 
BRANCH  20  22
ATOM     22  N   UNL     1     -10.416   4.530 -15.796  1.00  0.00    -0.329 N 
ATOM     23  C   UNL     1     -11.108   5.726 -16.275  1.00  0.00    +0.152 C 
BRANCH  22  24
ATOM     24  C   UNL     1     -11.074   3.817 -14.749  1.00  0.00    +0.044 A 
ATOM     25  C   UNL     1     -12.437   4.140 -14.398  1.00  0.00    +0.027 A 
ATOM     26  C   UNL     1     -10.371   2.783 -14.072  1.00  0.00    +0.057 A 
ATOM     27  C   UNL     1     -13.188   3.506 -13.382  1.00  0.00    +0.014 A 
ATOM     28  C   UNL     1     -11.092   2.133 -13.058  1.00  0.00    +0.095 A 
ATOM     29  C   UNL     1     -12.448   2.513 -12.754  1.00  0.00    +0.023 A 
ATOM     30  N   UNL     1     -10.721   1.134 -12.242  1.00  0.00    -0.173 NA
ATOM     31  C   UNL     1     -12.879   1.708 -11.727  1.00  0.00    +0.043 A 
ATOM     32  N   UNL     1     -11.799   0.896 -11.468  1.00  0.00    -0.272 N 
ATOM     33  C   UNL     1     -14.159   1.616 -10.985  1.00  0.00    +0.067 C 
ATOM     34  C   UNL     1     -11.720  -0.145 -10.468  1.00  0.00    +0.174 C 
ENDBRANCH  22  24
ENDBRANCH  20  22
ENDBRANCH   1  16
TORSDOF 6
ENDMDL
MODEL 4
REMARK VINA RESULT:    -9.411      4.026      7.952
REMARK INTER + INTRA:         -12.920
REMARK INTER:                 -12.957
REMARK INTRA:                   0.037
REMARK UNBOUND:                -0.484
REMARK SMILES Cc1ccc(Nc2nccc(N(C)c3ccc4c(C)n(C)nc4c3)n2)cc1S(N)(=O)=O
REMARK SMILES IDX 6 1 5 3 2 4 3 5 27 6 4 7 26 8 1 9 28 10 30 11 31 12 29 13
REMARK SMILES IDX 7 16 8 17 25 18 9 19 11 20 10 21 12 22 13 23 14 24 15 25
REMARK SMILES IDX 24 26 16 27 23 28 17 29 22 30 18 31 20 32 19 33 21 34
REMARK H PARENT 6 2 29 14 29 15
ROOT
ATOM      1  N   UNL     1      -9.972   0.988 -12.851  1.00  0.00    -0.324 N 
ATOM      2  H   UNL     1      -9.249   0.328 -12.602  1.00  0.00    +0.170 HD
ENDROOT
BRANCH   1   3
ATOM      3  C   UNL     1     -11.139   0.987 -12.083  1.00  0.00    +0.042 A 
ATOM      4  C   UNL     1     -13.613   1.030 -10.660  1.00  0.00    -0.031 A 
ATOM      5  C   UNL     1     -13.374   1.908 -11.725  1.00  0.00    +0.007 A 
ATOM      6  C   UNL     1     -12.590   0.132 -10.310  1.00  0.00    +0.087 A 
ATOM      7  C   UNL     1     -12.163   1.879 -12.426  1.00  0.00    +0.026 A 
ATOM      8  C   UNL     1     -11.374   0.114 -11.019  1.00  0.00    +0.048 A 
ATOM      9  C   UNL     1     -14.932   1.122  -9.945  1.00  0.00    +0.046 C 
BRANCH   6  10
ATOM     10  S   UNL     1     -12.762  -1.029  -8.965  1.00  0.00    +0.238 S 
ATOM     11  O   UNL     1     -13.751  -2.024  -9.310  1.00  0.00    -0.207 OA
ATOM     12  O   UNL     1     -12.817  -0.308  -7.715  1.00  0.00    -0.207 OA
BRANCH  10  13
ATOM     13  N   UNL     1     -11.271  -1.817  -9.016  1.00  0.00    -0.225 NA
ATOM     14  H   UNL     1     -11.343  -2.780  -9.339  1.00  0.00    +0.137 HD
ATOM     15  H   UNL     1     -10.818  -1.736  -8.106  1.00  0.00    +0.137 HD
ENDBRANCH  10  13
ENDBRANCH   6  10
ENDBRANCH   1   3
BRANCH   1  16
ATOM     16  C   UNL     1      -9.596   1.610 -14.039  1.00  0.00    +0.229 A 
ATOM     17  N   UNL     1      -8.613   1.138 -14.807  1.00  0.00    -0.221 NA
ATOM     18  N   UNL     1     -10.305   2.706 -14.347  1.00  0.00    -0.195 NA
ATOM     19  C   UNL     1      -8.334   1.829 -15.920  1.00  0.00    +0.119 A 
ATOM     20  C   UNL     1     -10.022   3.404 -15.468  1.00  0.00    +0.138 A 
ATOM     21  C   UNL     1      -9.007   2.967 -16.297  1.00  0.00    +0.067 A 
BRANCH  20  22
ATOM     22  N   UNL     1     -10.797   4.552 -15.755  1.00  0.00    -0.329 N 
ATOM     23  C   UNL     1     -11.928   4.881 -14.889  1.00  0.00    +0.152 C 
BRANCH  22  24
ATOM     24  C   UNL     1     -10.453   5.543 -16.723  1.00  0.00    +0.044 A 
ATOM     25  C   UNL     1      -9.966   6.834 -16.297  1.00  0.00    +0.027 A 
ATOM     26  C   UNL     1     -10.590   5.233 -18.104  1.00  0.00    +0.057 A 
ATOM     27  C   UNL     1      -9.598   7.890 -17.160  1.00  0.00    +0.014 A 
ATOM     28  C   UNL     1     -10.229   6.264 -18.987  1.00  0.00    +0.095 A 
ATOM     29  C   UNL     1      -9.758   7.531 -18.492  1.00  0.00    +0.023 A 
ATOM     30  N   UNL     1     -10.245   6.294 -20.329  1.00  0.00    -0.173 NA
ATOM     31  C   UNL     1      -9.492   8.324 -19.582  1.00  0.00    +0.043 A 
ATOM     32  N   UNL     1      -9.797   7.522 -20.657  1.00  0.00    -0.272 N 
ATOM     33  C   UNL     1      -8.991   9.712 -19.724  1.00  0.00    +0.067 C 
ATOM     34  C   UNL     1      -9.694   7.872 -22.055  1.00  0.00    +0.174 C 
ENDBRANCH  22  24
ENDBRANCH  20  22
ENDBRANCH   1  16
TORSDOF 6
ENDMDL
MODEL 5
REMARK VINA RESULT:    -9.231      4.259      8.486
REMARK INTER + INTRA:         -12.683
REMARK INTER:                 -12.325
REMARK INTRA:                  -0.358
REMARK UNBOUND:                -0.484
REMARK SMILES Cc1ccc(Nc2nccc(N(C)c3ccc4c(C)n(C)nc4c3)n2)cc1S(N)(=O)=O
REMARK SMILES IDX 6 1 5 3 2 4 3 5 27 6 4 7 26 8 1 9 28 10 30 11 31 12 29 13
REMARK SMILES IDX 7 16 8 17 25 18 9 19 11 20 10 21 12 22 13 23 14 24 15 25
REMARK SMILES IDX 24 26 16 27 23 28 17 29 22 30 18 31 20 32 19 33 21 34
REMARK H PARENT 6 2 29 14 29 15
ROOT
ATOM      1  N   UNL     1     -12.086   1.586 -12.518  1.00  0.00    -0.324 N 
ATOM      2  H   UNL     1     -11.514   0.900 -12.992  1.00  0.00    +0.170 HD
ENDROOT
BRANCH   1   3
ATOM      3  C   UNL     1     -12.658   1.215 -11.298  1.00  0.00    +0.042 A 
ATOM      4  C   UNL     1     -13.981   0.429  -8.895  1.00  0.00    -0.031 A 
ATOM      5  C   UNL     1     -14.673   1.083  -9.922  1.00  0.00    +0.007 A 
ATOM      6  C   UNL     1     -12.610   0.181  -9.083  1.00  0.00    +0.087 A 
ATOM      7  C   UNL     1     -14.024   1.460 -11.102  1.00  0.00    +0.026 A 
ATOM      8  C   UNL     1     -11.966   0.568 -10.273  1.00  0.00    +0.048 A 
ATOM      9  C   UNL     1     -14.739   0.061  -7.650  1.00  0.00    +0.046 C 
BRANCH   6  10
ATOM     10  S   UNL     1     -11.611  -0.631  -7.847  1.00  0.00    +0.238 S 
ATOM     11  O   UNL     1     -11.998  -2.020  -7.751  1.00  0.00    -0.207 OA
ATOM     12  O   UNL     1     -11.519   0.212  -6.678  1.00  0.00    -0.207 OA
BRANCH  10  13
ATOM     13  N   UNL     1     -10.096  -0.620  -8.587  1.00  0.00    -0.225 NA
ATOM     14  H   UNL     1      -9.345  -0.899  -7.957  1.00  0.00    +0.137 HD
ATOM     15  H   UNL     1      -9.938   0.293  -9.014  1.00  0.00    +0.137 HD
ENDBRANCH  10  13
ENDBRANCH   6  10
ENDBRANCH   1   3
BRANCH   1  16
ATOM     16  C   UNL     1     -12.236   2.680 -13.365  1.00  0.00    +0.229 A 
ATOM     17  N   UNL     1     -13.362   3.393 -13.411  1.00  0.00    -0.221 NA
ATOM     18  N   UNL     1     -11.161   2.959 -14.117  1.00  0.00    -0.195 NA
ATOM     19  C   UNL     1     -13.392   4.416 -14.275  1.00  0.00    +0.119 A 
ATOM     20  C   UNL     1     -11.191   3.989 -14.990  1.00  0.00    +0.138 A 
ATOM     21  C   UNL     1     -12.335   4.758 -15.086  1.00  0.00    +0.067 A 
BRANCH  20  22
ATOM     22  N   UNL     1     -10.034   4.249 -15.759  1.00  0.00    -0.329 N 
ATOM     23  C   UNL     1      -8.952   3.266 -15.770  1.00  0.00    +0.152 C 
BRANCH  22  24
ATOM     24  C   UNL     1      -9.903   5.319 -16.695  1.00  0.00    +0.044 A 
ATOM     25  C   UNL     1      -9.577   6.648 -16.234  1.00  0.00    +0.027 A 
ATOM     26  C   UNL     1     -10.089   5.050 -18.078  1.00  0.00    +0.057 A 
ATOM     27  C   UNL     1      -9.424   7.782 -17.063  1.00  0.00    +0.014 A 
ATOM     28  C   UNL     1      -9.941   6.158 -18.929  1.00  0.00    +0.095 A 
ATOM     29  C   UNL     1      -9.622   7.459 -18.399  1.00  0.00    +0.023 A 
ATOM     30  N   UNL     1     -10.054   6.241 -20.264  1.00  0.00    -0.173 NA
ATOM     31  C   UNL     1      -9.548   8.327 -19.463  1.00  0.00    +0.043 A 
ATOM     32  N   UNL     1      -9.809   7.534 -20.556  1.00  0.00    -0.272 N 
ATOM     33  C   UNL     1      -9.261   9.778 -19.564  1.00  0.00    +0.067 C 
ATOM     34  C   UNL     1      -9.854   7.953 -21.938  1.00  0.00    +0.174 C 
ENDBRANCH  22  24
ENDBRANCH  20  22
ENDBRANCH   1  16
TORSDOF 6
ENDMDL
MODEL 6
REMARK VINA RESULT:    -9.167      2.801      6.056
REMARK INTER + INTRA:         -12.599
REMARK INTER:                 -12.007
REMARK INTRA:                  -0.591
REMARK UNBOUND:                -0.484
REMARK SMILES Cc1ccc(Nc2nccc(N(C)c3ccc4c(C)n(C)nc4c3)n2)cc1S(N)(=O)=O
REMARK SMILES IDX 6 1 5 3 2 4 3 5 27 6 4 7 26 8 1 9 28 10 30 11 31 12 29 13
REMARK SMILES IDX 7 16 8 17 25 18 9 19 11 20 10 21 12 22 13 23 14 24 15 25
REMARK SMILES IDX 24 26 16 27 23 28 17 29 22 30 18 31 20 32 19 33 21 34
REMARK H PARENT 6 2 29 14 29 15
ROOT
ATOM      1  N   UNL     1      -7.344   1.535 -16.604  1.00  0.00    -0.324 N 
ATOM      2  H   UNL     1      -7.693   1.835 -17.505  1.00  0.00    +0.170 HD
ENDROOT
BRANCH   1   3
ATOM      3  C   UNL     1      -6.345   0.558 -16.593  1.00  0.00    +0.042 A 
ATOM      4  C   UNL     1      -4.433  -1.561 -16.600  1.00  0.00    -0.031 A 
ATOM      5  C   UNL     1      -5.734  -1.761 -16.122  1.00  0.00    +0.007 A 
ATOM      6  C   UNL     1      -4.096  -0.279 -17.067  1.00  0.00    +0.087 A 
ATOM      7  C   UNL     1      -6.672  -0.723 -16.128  1.00  0.00    +0.026 A 
ATOM      8  C   UNL     1      -5.047   0.760 -17.064  1.00  0.00    +0.048 A 
ATOM      9  C   UNL     1      -3.474  -2.717 -16.555  1.00  0.00    +0.046 C 
BRANCH   6  10
ATOM     10  S   UNL     1      -2.469   0.112 -17.687  1.00  0.00    +0.238 S 
ATOM     11  O   UNL     1      -2.216  -0.649 -18.889  1.00  0.00    -0.207 OA
ATOM     12  O   UNL     1      -1.531   0.130 -16.590  1.00  0.00    -0.207 OA
BRANCH  10  13
ATOM     13  N   UNL     1      -2.680   1.710 -18.184  1.00  0.00    -0.225 NA
ATOM     14  H   UNL     1      -1.877   2.077 -18.693  1.00  0.00    +0.137 HD
ATOM     15  H   UNL     1      -2.934   2.281 -17.378  1.00  0.00    +0.137 HD
ENDBRANCH  10  13
ENDBRANCH   6  10
ENDBRANCH   1   3
BRANCH   1  16
ATOM     16  C   UNL     1      -8.130   2.127 -15.620  1.00  0.00    +0.229 A 
ATOM     17  N   UNL     1      -8.014   1.806 -14.331  1.00  0.00    -0.221 NA
ATOM     18  N   UNL     1      -8.997   3.045 -16.072  1.00  0.00    -0.195 NA
ATOM     19  C   UNL     1      -8.833   2.435 -13.478  1.00  0.00    +0.119 A 
ATOM     20  C   UNL     1      -9.824   3.678 -15.213  1.00  0.00    +0.138 A 
ATOM     21  C   UNL     1      -9.755   3.379 -13.865  1.00  0.00    +0.067 A 
BRANCH  20  22
ATOM     22  N   UNL     1     -10.720   4.641 -15.732  1.00  0.00    -0.329 N 
ATOM     23  C   UNL     1     -12.024   4.816 -15.095  1.00  0.00    +0.152 C 
BRANCH  22  24
ATOM     24  C   UNL     1     -10.385   5.610 -16.726  1.00  0.00    +0.044 A 
ATOM     25  C   UNL     1      -9.897   6.911 -16.334  1.00  0.00    +0.027 A 
ATOM     26  C   UNL     1     -10.531   5.267 -18.098  1.00  0.00    +0.057 A 
ATOM     27  C   UNL     1      -9.537   7.947 -17.225  1.00  0.00    +0.014 A 
ATOM     28  C   UNL     1     -10.179   6.276 -19.009  1.00  0.00    +0.095 A 
ATOM     29  C   UNL     1      -9.707   7.556 -18.547  1.00  0.00    +0.023 A 
ATOM     30  N   UNL     1     -10.205   6.274 -20.351  1.00  0.00    -0.173 NA
ATOM     31  C   UNL     1      -9.450   8.323 -19.658  1.00  0.00    +0.043 A 
ATOM     32  N   UNL     1      -9.762   7.495 -20.711  1.00  0.00    -0.272 N 
ATOM     33  C   UNL     1      -8.952   9.708 -19.836  1.00  0.00    +0.067 C 
ATOM     34  C   UNL     1      -9.669   7.812 -22.118  1.00  0.00    +0.174 C 
ENDBRANCH  22  24
ENDBRANCH  20  22
ENDBRANCH   1  16
TORSDOF 6
ENDMDL
MODEL 7
REMARK VINA RESULT:    -9.052      2.199      5.490
REMARK INTER + INTRA:         -12.446
REMARK INTER:                 -11.351
REMARK INTRA:                  -1.095
REMARK UNBOUND:                -0.484
REMARK SMILES Cc1ccc(Nc2nccc(N(C)c3ccc4c(C)n(C)nc4c3)n2)cc1S(N)(=O)=O
REMARK SMILES IDX 6 1 5 3 2 4 3 5 27 6 4 7 26 8 1 9 28 10 30 11 31 12 29 13
REMARK SMILES IDX 7 16 8 17 25 18 9 19 11 20 10 21 12 22 13 23 14 24 15 25
REMARK SMILES IDX 24 26 16 27 23 28 17 29 22 30 18 31 20 32 19 33 21 34
REMARK H PARENT 6 2 29 14 29 15
ROOT
ATOM      1  N   UNL     1     -10.705   4.388 -16.136  1.00  0.00    -0.324 N 
ATOM      2  H   UNL     1     -11.425   5.074 -16.321  1.00  0.00    +0.170 HD
ENDROOT
BRANCH   1   3
ATOM      3  C   UNL     1     -10.890   3.539 -15.042  1.00  0.00    +0.042 A 
ATOM      4  C   UNL     1     -11.434   1.864 -12.796  1.00  0.00    -0.031 A 
ATOM      5  C   UNL     1     -12.048   3.115 -12.933  1.00  0.00    +0.007 A 
ATOM      6  C   UNL     1     -10.533   1.464 -13.798  1.00  0.00    +0.087 A 
ATOM      7  C   UNL     1     -11.786   3.931 -14.038  1.00  0.00    +0.026 A 
ATOM      8  C   UNL     1     -10.273   2.295 -14.905  1.00  0.00    +0.048 A 
ATOM      9  C   UNL     1     -11.754   1.044 -11.578  1.00  0.00    +0.046 C 
BRANCH   6  10
ATOM     10  S   UNL     1      -9.673  -0.099 -13.737  1.00  0.00    +0.238 S 
ATOM     11  O   UNL     1      -8.981  -0.317 -14.986  1.00  0.00    -0.207 OA
ATOM     12  O   UNL     1     -10.543  -1.101 -13.169  1.00  0.00    -0.207 OA
BRANCH  10  13
ATOM     13  N   UNL     1      -8.478   0.226 -12.593  1.00  0.00    -0.225 NA
ATOM     14  H   UNL     1      -7.829  -0.549 -12.466  1.00  0.00    +0.137 HD
ATOM     15  H   UNL     1      -8.919   0.521 -11.721  1.00  0.00    +0.137 HD
ENDBRANCH  10  13
ENDBRANCH   6  10
ENDBRANCH   1   3
BRANCH   1  16
ATOM     16  C   UNL     1      -9.642   4.639 -16.999  1.00  0.00    +0.229 A 
ATOM     17  N   UNL     1      -9.788   5.355 -18.115  1.00  0.00    -0.221 NA
ATOM     18  N   UNL     1      -8.471   4.113 -16.613  1.00  0.00    -0.195 NA
ATOM     19  C   UNL     1      -8.694   5.518 -18.871  1.00  0.00    +0.119 A 
ATOM     20  C   UNL     1      -7.369   4.275 -17.376  1.00  0.00    +0.138 A 
ATOM     21  C   UNL     1      -7.462   5.002 -18.548  1.00  0.00    +0.067 A 
BRANCH  20  22
ATOM     22  N   UNL     1      -6.154   3.707 -16.929  1.00  0.00    -0.329 N 
ATOM     23  C   UNL     1      -4.994   4.575 -16.729  1.00  0.00    +0.152 C 
BRANCH  22  24
ATOM     24  C   UNL     1      -6.007   2.365 -16.464  1.00  0.00    +0.044 A 
ATOM     25  C   UNL     1      -6.064   1.265 -17.398  1.00  0.00    +0.027 A 
ATOM     26  C   UNL     1      -5.794   2.136 -15.077  1.00  0.00    +0.057 A 
ATOM     27  C   UNL     1      -5.933  -0.100 -17.056  1.00  0.00    +0.014 A 
ATOM     28  C   UNL     1      -5.658   0.789 -14.707  1.00  0.00    +0.095 A 
ATOM     29  C   UNL     1      -5.734  -0.260 -15.691  1.00  0.00    +0.023 A 
ATOM     30  N   UNL     1      -5.455   0.244 -13.497  1.00  0.00    -0.173 NA
ATOM     31  C   UNL     1      -5.570  -1.454 -15.030  1.00  0.00    +0.043 A 
ATOM     32  N   UNL     1      -5.399  -1.085 -13.717  1.00  0.00    -0.272 N 
ATOM     33  C   UNL     1      -5.551  -2.865 -15.485  1.00  0.00    +0.067 C 
ATOM     34  C   UNL     1      -5.184  -1.966 -12.592  1.00  0.00    +0.174 C 
ENDBRANCH  22  24
ENDBRANCH  20  22
ENDBRANCH   1  16
TORSDOF 6
ENDMDL
MODEL 8
REMARK VINA RESULT:    -9.000      1.574      5.472
REMARK INTER + INTRA:         -12.378
REMARK INTER:                 -12.358
REMARK INTRA:                  -0.020
REMARK UNBOUND:                -0.484
REMARK SMILES Cc1ccc(Nc2nccc(N(C)c3ccc4c(C)n(C)nc4c3)n2)cc1S(N)(=O)=O
REMARK SMILES IDX 6 1 5 3 2 4 3 5 27 6 4 7 26 8 1 9 28 10 30 11 31 12 29 13
REMARK SMILES IDX 7 16 8 17 25 18 9 19 11 20 10 21 12 22 13 23 14 24 15 25
REMARK SMILES IDX 24 26 16 27 23 28 17 29 22 30 18 31 20 32 19 33 21 34
REMARK H PARENT 6 2 29 14 29 15
ROOT
ATOM      1  N   UNL     1      -9.346   0.483 -12.649  1.00  0.00    -0.324 N 
ATOM      2  H   UNL     1      -9.197  -0.203 -11.921  1.00  0.00    +0.170 HD
ENDROOT
BRANCH   1   3
ATOM      3  C   UNL     1      -8.275   0.763 -13.502  1.00  0.00    +0.042 A 
ATOM      4  C   UNL     1      -6.031   1.454 -15.123  1.00  0.00    -0.031 A 
ATOM      5  C   UNL     1      -6.660   2.408 -14.313  1.00  0.00    +0.007 A 
ATOM      6  C   UNL     1      -6.547   0.147 -15.118  1.00  0.00    +0.087 A 
ATOM      7  C   UNL     1      -7.756   2.064 -13.513  1.00  0.00    +0.026 A 
ATOM      8  C   UNL     1      -7.651  -0.187 -14.312  1.00  0.00    +0.048 A 
ATOM      9  C   UNL     1      -4.866   1.895 -15.965  1.00  0.00    +0.046 C 
BRANCH   6  10
ATOM     10  S   UNL     1      -5.846  -1.158 -16.115  1.00  0.00    +0.238 S 
ATOM     11  O   UNL     1      -6.650  -2.350 -15.982  1.00  0.00    -0.207 OA
ATOM     12  O   UNL     1      -4.414  -1.185 -15.928  1.00  0.00    -0.207 OA
BRANCH  10  13
ATOM     13  N   UNL     1      -6.131  -0.574 -17.671  1.00  0.00    -0.225 NA
ATOM     14  H   UNL     1      -5.421   0.086 -17.984  1.00  0.00    +0.137 HD
ATOM     15  H   UNL     1      -7.077  -0.193 -17.718  1.00  0.00    +0.137 HD
ENDBRANCH  10  13
ENDBRANCH   6  10
ENDBRANCH   1   3
BRANCH   1  16
ATOM     16  C   UNL     1     -10.599   1.057 -12.448  1.00  0.00    +0.229 A 
ATOM     17  N   UNL     1     -11.416   0.654 -11.474  1.00  0.00    -0.221 NA
ATOM     18  N   UNL     1     -10.906   2.046 -13.300  1.00  0.00    -0.195 NA
ATOM     19  C   UNL     1     -12.600   1.274 -11.386  1.00  0.00    +0.119 A 
ATOM     20  C   UNL     1     -12.100   2.669 -13.214  1.00  0.00    +0.138 A 
ATOM     21  C   UNL     1     -12.991   2.287 -12.229  1.00  0.00    +0.067 A 
BRANCH  20  22
ATOM     22  N   UNL     1     -12.381   3.708 -14.131  1.00  0.00    -0.329 N 
ATOM     23  C   UNL     1     -13.593   4.507 -13.951  1.00  0.00    +0.152 C 
BRANCH  22  24
ATOM     24  C   UNL     1     -11.475   4.181 -15.127  1.00  0.00    +0.044 A 
ATOM     25  C   UNL     1     -10.361   3.360 -15.540  1.00  0.00    +0.027 A 
ATOM     26  C   UNL     1     -11.695   5.460 -15.708  1.00  0.00    +0.057 A 
ATOM     27  C   UNL     1      -9.400   3.721 -16.512  1.00  0.00    +0.014 A 
ATOM     28  C   UNL     1     -10.757   5.845 -16.679  1.00  0.00    +0.095 A 
ATOM     29  C   UNL     1      -9.664   4.979 -17.037  1.00  0.00    +0.023 A 
ATOM     30  N   UNL     1     -10.680   6.974 -17.402  1.00  0.00    -0.173 NA
ATOM     31  C   UNL     1      -8.926   5.626 -17.999  1.00  0.00    +0.043 A 
ATOM     32  N   UNL     1      -9.591   6.817 -18.181  1.00  0.00    -0.272 N 
ATOM     33  C   UNL     1      -7.702   5.259 -18.751  1.00  0.00    +0.067 C 
ATOM     34  C   UNL     1      -9.231   7.878 -19.093  1.00  0.00    +0.174 C 
ENDBRANCH  22  24
ENDBRANCH  20  22
ENDBRANCH   1  16
TORSDOF 6
ENDMDL
MODEL 9
REMARK VINA RESULT:    -8.990      2.627      5.954
REMARK INTER + INTRA:         -12.364
REMARK INTER:                 -11.616
REMARK INTRA:                  -0.748
REMARK UNBOUND:                -0.484
REMARK SMILES Cc1ccc(Nc2nccc(N(C)c3ccc4c(C)n(C)nc4c3)n2)cc1S(N)(=O)=O
REMARK SMILES IDX 6 1 5 3 2 4 3 5 27 6 4 7 26 8 1 9 28 10 30 11 31 12 29 13
REMARK SMILES IDX 7 16 8 17 25 18 9 19 11 20 10 21 12 22 13 23 14 24 15 25
REMARK SMILES IDX 24 26 16 27 23 28 17 29 22 30 18 31 20 32 19 33 21 34
REMARK H PARENT 6 2 29 14 29 15
ROOT
ATOM      1  N   UNL     1      -8.281   0.962 -16.426  1.00  0.00    -0.324 N 
ATOM      2  H   UNL     1      -9.035   0.671 -17.035  1.00  0.00    +0.170 HD
ENDROOT
BRANCH   1   3
ATOM      3  C   UNL     1      -7.042   0.338 -16.590  1.00  0.00    +0.042 A 
ATOM      4  C   UNL     1      -4.442  -0.777 -16.966  1.00  0.00    -0.031 A 
ATOM      5  C   UNL     1      -4.876   0.320 -17.722  1.00  0.00    +0.007 A 
ATOM      6  C   UNL     1      -5.333  -1.317 -16.022  1.00  0.00    +0.087 A 
ATOM      7  C   UNL     1      -6.149   0.869 -17.530  1.00  0.00    +0.026 A 
ATOM      8  C   UNL     1      -6.613  -0.758 -15.840  1.00  0.00    +0.048 A 
ATOM      9  C   UNL     1      -3.067  -1.322 -17.232  1.00  0.00    +0.046 C 
BRANCH   6  10
ATOM     10  S   UNL     1      -4.909  -2.721 -15.007  1.00  0.00    +0.238 S 
ATOM     11  O   UNL     1      -3.871  -2.345 -14.075  1.00  0.00    -0.207 OA
ATOM     12  O   UNL     1      -4.790  -3.895 -15.840  1.00  0.00    -0.207 OA
BRANCH  10  13
ATOM     13  N   UNL     1      -6.313  -2.903 -14.091  1.00  0.00    -0.225 NA
ATOM     14  H   UNL     1      -6.414  -3.840 -13.702  1.00  0.00    +0.137 HD
ATOM     15  H   UNL     1      -7.117  -2.617 -14.650  1.00  0.00    +0.137 HD
ENDBRANCH  10  13
ENDBRANCH   6  10
ENDBRANCH   1   3
BRANCH   1  16
ATOM     16  C   UNL     1      -8.809   1.832 -15.476  1.00  0.00    +0.229 A 
ATOM     17  N   UNL     1      -8.520   1.726 -14.178  1.00  0.00    -0.221 NA
ATOM     18  N   UNL     1      -9.616   2.782 -15.972  1.00  0.00    -0.195 NA
ATOM     19  C   UNL     1      -9.097   2.614 -13.359  1.00  0.00    +0.119 A 
ATOM     20  C   UNL     1     -10.200   3.676 -15.146  1.00  0.00    +0.138 A 
ATOM     21  C   UNL     1      -9.943   3.609 -13.789  1.00  0.00    +0.067 A 
BRANCH  20  22
ATOM     22  N   UNL     1     -11.040   4.662 -15.712  1.00  0.00    -0.329 N 
ATOM     23  C   UNL     1     -12.364   4.885 -15.135  1.00  0.00    +0.152 C 
BRANCH  22  24
ATOM     24  C   UNL     1     -10.631   5.610 -16.698  1.00  0.00    +0.044 A 
ATOM     25  C   UNL     1     -10.078   6.881 -16.295  1.00  0.00    +0.027 A 
ATOM     26  C   UNL     1     -10.768   5.275 -18.073  1.00  0.00    +0.057 A 
ATOM     27  C   UNL     1      -9.643   7.896 -17.178  1.00  0.00    +0.014 A 
ATOM     28  C   UNL     1     -10.341   6.263 -18.975  1.00  0.00    +0.095 A 
ATOM     29  C   UNL     1      -9.807   7.514 -18.503  1.00  0.00    +0.023 A 
ATOM     30  N   UNL     1     -10.339   6.261 -20.318  1.00  0.00    -0.173 NA
ATOM     31  C   UNL     1      -9.484   8.265 -19.608  1.00  0.00    +0.043 A 
ATOM     32  N   UNL     1      -9.821   7.455 -20.668  1.00  0.00    -0.272 N 
ATOM     33  C   UNL     1      -8.906   9.620 -19.775  1.00  0.00    +0.067 C 
ATOM     34  C   UNL     1      -9.682   7.766 -22.072  1.00  0.00    +0.174 C 
ENDBRANCH  22  24
ENDBRANCH  20  22
ENDBRANCH   1  16
TORSDOF 6
ENDMDL
MODEL 10
REMARK VINA RESULT:    -8.915      2.738      4.697
REMARK INTER + INTRA:         -12.266
REMARK INTER:                 -11.211
REMARK INTRA:                  -1.055
REMARK UNBOUND:                -0.484
REMARK SMILES Cc1ccc(Nc2nccc(N(C)c3ccc4c(C)n(C)nc4c3)n2)cc1S(N)(=O)=O
REMARK SMILES IDX 6 1 5 3 2 4 3 5 27 6 4 7 26 8 1 9 28 10 30 11 31 12 29 13
REMARK SMILES IDX 7 16 8 17 25 18 9 19 11 20 10 21 12 22 13 23 14 24 15 25
REMARK SMILES IDX 24 26 16 27 23 28 17 29 22 30 18 31 20 32 19 33 21 34
REMARK H PARENT 6 2 29 14 29 15
ROOT
ATOM      1  N   UNL     1      -5.580   0.199 -13.919  1.00  0.00    -0.324 N 
ATOM      2  H   UNL     1      -4.586   0.320 -13.775  1.00  0.00    +0.170 HD
ENDROOT
BRANCH   1   3
ATOM      3  C   UNL     1      -6.298  -0.474 -12.927  1.00  0.00    +0.042 A 
ATOM      4  C   UNL     1      -7.645  -1.790 -10.783  1.00  0.00    -0.031 A 
ATOM      5  C   UNL     1      -6.252  -1.645 -10.783  1.00  0.00    +0.007 A 
ATOM      6  C   UNL     1      -8.358  -1.274 -11.879  1.00  0.00    +0.087 A 
ATOM      7  C   UNL     1      -5.595  -0.992 -11.832  1.00  0.00    +0.026 A 
ATOM      8  C   UNL     1      -7.686  -0.622 -12.931  1.00  0.00    +0.048 A 
ATOM      9  C   UNL     1      -8.284  -2.511  -9.629  1.00  0.00    +0.046 C 
BRANCH   6  10
ATOM     10  S   UNL     1     -10.133  -1.406 -12.008  1.00  0.00    +0.238 S 
ATOM     11  O   UNL     1     -10.752  -0.489 -11.079  1.00  0.00    -0.207 OA
ATOM     12  O   UNL     1     -10.507  -2.800 -12.060  1.00  0.00    -0.207 OA
BRANCH  10  13
ATOM     13  N   UNL     1     -10.401  -0.763 -13.544  1.00  0.00    -0.225 NA
ATOM     14  H   UNL     1      -9.941  -1.294 -14.282  1.00  0.00    +0.137 HD
ATOM     15  H   UNL     1     -10.143   0.224 -13.545  1.00  0.00    +0.137 HD
ENDBRANCH  10  13
ENDBRANCH   6  10
ENDBRANCH   1   3
BRANCH   1  16
ATOM     16  C   UNL     1      -5.884   0.641 -15.204  1.00  0.00    +0.229 A 
ATOM     17  N   UNL     1      -5.457   0.001 -16.294  1.00  0.00    -0.221 NA
ATOM     18  N   UNL     1      -6.643   1.745 -15.252  1.00  0.00    -0.195 NA
ATOM     19  C   UNL     1      -5.804   0.529 -17.475  1.00  0.00    +0.119 A 
ATOM     20  C   UNL     1      -6.992   2.278 -16.443  1.00  0.00    +0.138 A 
ATOM     21  C   UNL     1      -6.570   1.663 -17.606  1.00  0.00    +0.067 A 
BRANCH  20  22
ATOM     22  N   UNL     1      -7.796   3.441 -16.446  1.00  0.00    -0.329 N 
ATOM     23  C   UNL     1      -7.443   4.547 -17.335  1.00  0.00    +0.152 C 
BRANCH  22  24
ATOM     24  C   UNL     1      -9.056   3.560 -15.786  1.00  0.00    +0.044 A 
ATOM     25  C   UNL     1      -9.975   4.609 -16.163  1.00  0.00    +0.027 A 
ATOM     26  C   UNL     1      -9.389   2.628 -14.765  1.00  0.00    +0.057 A 
ATOM     27  C   UNL     1     -11.244   4.826 -15.581  1.00  0.00    +0.014 A 
ATOM     28  C   UNL     1     -10.647   2.818 -14.169  1.00  0.00    +0.095 A 
ATOM     29  C   UNL     1     -11.510   3.891 -14.590  1.00  0.00    +0.023 A 
ATOM     30  N   UNL     1     -11.249   2.125 -13.190  1.00  0.00    -0.173 NA
ATOM     31  C   UNL     1     -12.652   3.820 -13.829  1.00  0.00    +0.043 A 
ATOM     32  N   UNL     1     -12.439   2.734 -13.012  1.00  0.00    -0.272 N 
ATOM     33  C   UNL     1     -13.892   4.633 -13.789  1.00  0.00    +0.067 C 
ATOM     34  C   UNL     1     -13.341   2.215 -12.009  1.00  0.00    +0.174 C 
ENDBRANCH  22  24
ENDBRANCH  20  22
ENDBRANCH   1  16
TORSDOF 6
ENDMDL
