REMARK SMILES CCn1c(=O)c(-c2cc(NC(=O)Nc3ccccc3)c(F)cc2Br)cc2cnc(NC)cc21
REMARK SMILES IDX 3 1 4 2 5 3 6 4 25 5 26 6 27 7 28 8 29 9 32 10 33 11 2 12
REMARK SMILES IDX 1 13 7 14 8 15 23 16 9 17 22 18 20 19 24 20 21 21 10 22
REMARK SMILES IDX 11 23 12 24 13 25 14 28 15 29 19 30 16 31 18 32 17 33 30 34
REMARK SMILES IDX 31 35
REMARK H PARENT 10 26 13 27 30 36
ROOT
ATOM      1  N   UNL     1      -2.891  -1.501  -1.128  1.00  0.00    -0.308 N 
ATOM      2  C   UNL     1      -1.732  -2.010  -0.537  1.00  0.00    +0.258 C 
ATOM      3  O   UNL     1      -1.130  -2.993  -0.971  1.00  0.00    -0.269 OA
ATOM      4  C   UNL     1      -1.208  -1.303   0.678  1.00  0.00    +0.049 C 
ATOM      5  C   UNL     1      -1.843  -0.233   1.177  1.00  0.00    +0.026 C 
ATOM      6  C   UNL     1      -3.067   0.250   0.555  1.00  0.00    +0.018 A 
ATOM      7  C   UNL     1      -3.758   1.338   1.075  1.00  0.00    +0.123 A 
ATOM      8  N   UNL     1      -4.903   1.831   0.555  1.00  0.00    -0.239 NA
ATOM      9  C   UNL     1      -5.396   1.223  -0.536  1.00  0.00    +0.127 A 
ATOM     10  C   UNL     1      -4.780   0.119  -1.118  1.00  0.00    +0.073 A 
ATOM     11  C   UNL     1      -3.589  -0.379  -0.576  1.00  0.00    +0.056 A 
ENDROOT
BRANCH   1  12
ATOM     12  C   UNL     1      -3.405  -2.204  -2.303  1.00  0.00    +0.122 C 
ATOM     13  C   UNL     1      -4.409  -3.285  -1.930  1.00  0.00    +0.028 C 
ENDBRANCH   1  12
BRANCH   4  14
ATOM     14  C   UNL     1       0.016  -1.788   1.345  1.00  0.00    +0.004 A 
ATOM     15  C   UNL     1       1.221  -1.098   1.106  1.00  0.00    +0.039 A 
ATOM     16  C   UNL     1       0.022  -2.907   2.195  1.00  0.00    +0.029 A 
ATOM     17  C   UNL     1       2.413  -1.515   1.702  1.00  0.00    +0.079 A 
ATOM     18  C   UNL     1       1.211  -3.340   2.782  1.00  0.00    +0.057 A 
ATOM     19  C   UNL     1       2.388  -2.647   2.525  1.00  0.00    +0.147 A 
ATOM     20 Br   UNL     1      -1.562  -3.872   2.614  1.00  0.00    -0.050 Br
ATOM     21  F   UNL     1       3.528  -3.070   3.096  1.00  0.00    -0.205 F 
BRANCH  17  22
ATOM     22  N   UNL     1       3.661  -0.884   1.512  1.00  0.00    -0.305 N 
ATOM     23  C   UNL     1       3.896   0.358   0.942  1.00  0.00    +0.323 C 
ATOM     24  O   UNL     1       3.018   1.142   0.608  1.00  0.00    -0.248 OA
ATOM     25  N   UNL     1       5.259   0.574   0.816  1.00  0.00    -0.308 N 
ATOM     26  H   UNL     1       4.433  -1.307   2.012  1.00  0.00    +0.171 HD
ATOM     27  H   UNL     1       5.845  -0.240   0.920  1.00  0.00    +0.171 HD
BRANCH  25  28
ATOM     28  C   UNL     1       5.908   1.747   0.376  1.00  0.00    +0.042 A 
ATOM     29  C   UNL     1       5.257   2.960   0.147  1.00  0.00    +0.026 A 
ATOM     30  C   UNL     1       7.294   1.677   0.183  1.00  0.00    +0.026 A 
ATOM     31  C   UNL     1       5.977   4.082  -0.279  1.00  0.00    +0.002 A 
ATOM     32  C   UNL     1       8.013   2.797  -0.243  1.00  0.00    +0.002 A 
ATOM     33  C   UNL     1       7.353   4.000  -0.475  1.00  0.00    +0.000 A 
ENDBRANCH  25  28
ENDBRANCH  17  22
ENDBRANCH   4  14
BRANCH   9  34
ATOM     34  N   UNL     1      -6.591   1.752  -1.027  1.00  0.00    -0.373 N 
ATOM     35  C   UNL     1      -6.512   2.217  -2.402  1.00  0.00    +0.141 C 
ATOM     36  H   UNL     1      -6.793   2.525  -0.391  1.00  0.00    +0.161 HD
ENDBRANCH   9  34
TORSDOF 5
