MODEL 1
REMARK VINA RESULT:   -10.209      0.000      0.000
REMARK INTER + INTRA:         -13.926
REMARK INTER:                 -13.193
REMARK INTRA:                  -0.733
REMARK UNBOUND:                -0.733
REMARK SMILES CCn1c(=O)c(-c2cc(NC(=O)Nc3ccccc3)c(F)cc2Br)cc2cnc(NC)cc21
REMARK SMILES IDX 3 1 4 2 5 3 6 4 25 5 26 6 27 7 28 8 29 9 32 10 33 11 2 12
REMARK SMILES IDX 1 13 7 14 8 15 23 16 9 17 22 18 20 19 24 20 21 21 10 22
REMARK SMILES IDX 11 23 12 24 13 25 14 28 15 29 19 30 16 31 18 32 17 33 30 34
REMARK SMILES IDX 31 35
REMARK H PARENT 10 26 13 27 30 36
ROOT
ATOM      1  N   UNL     1     -38.762 160.962  -3.647  1.00  0.00    -0.308 N 
ATOM      2  C   UNL     1     -39.081 160.132  -2.569  1.00  0.00    +0.258 C 
ATOM      3  O   UNL     1     -39.188 158.909  -2.669  1.00  0.00    -0.269 OA
ATOM      4  C   UNL     1     -39.289 160.783  -1.234  1.00  0.00    +0.049 C 
ATOM      5  C   UNL     1     -39.184 162.112  -1.094  1.00  0.00    +0.026 C 
ATOM      6  C   UNL     1     -38.883 162.950  -2.245  1.00  0.00    +0.018 A 
ATOM      7  C   UNL     1     -38.801 164.332  -2.128  1.00  0.00    +0.123 A 
ATOM      8  N   UNL     1     -38.536 165.168  -3.156  1.00  0.00    -0.239 NA
ATOM      9  C   UNL     1     -38.340 164.616  -4.364  1.00  0.00    +0.127 A 
ATOM     10  C   UNL     1     -38.416 163.243  -4.579  1.00  0.00    +0.073 A 
ATOM     11  C   UNL     1     -38.683 162.385  -3.506  1.00  0.00    +0.056 A 
ENDROOT
BRANCH   1  12
ATOM     12  C   UNL     1     -38.575 160.323  -4.949  1.00  0.00    +0.122 C 
ATOM     13  C   UNL     1     -39.843 160.356  -5.791  1.00  0.00    +0.028 C 
ENDBRANCH   1  12
BRANCH   4  14
ATOM     14  C   UNL     1     -39.622 159.960  -0.055  1.00  0.00    +0.004 A 
ATOM     15  C   UNL     1     -38.602 159.175   0.518  1.00  0.00    +0.039 A 
ATOM     16  C   UNL     1     -40.911 159.927   0.506  1.00  0.00    +0.029 A 
ATOM     17  C   UNL     1     -38.859 158.370   1.630  1.00  0.00    +0.079 A 
ATOM     18  C   UNL     1     -41.180 159.114   1.606  1.00  0.00    +0.057 A 
ATOM     19  C   UNL     1     -40.159 158.343   2.149  1.00  0.00    +0.147 A 
ATOM     20 Br   UNL     1     -42.338 160.987  -0.169  1.00  0.00    -0.050 Br
ATOM     21  F   UNL     1     -40.427 157.564   3.209  1.00  0.00    -0.205 F 
BRANCH  17  22
ATOM     22  N   UNL     1     -37.897 157.552   2.259  1.00  0.00    -0.305 N 
ATOM     23  C   UNL     1     -37.297 157.758   3.493  1.00  0.00    +0.323 C 
ATOM     24  O   UNL     1     -37.606 158.652   4.270  1.00  0.00    -0.248 OA
ATOM     25  N   UNL     1     -36.313 156.807   3.709  1.00  0.00    -0.308 N 
ATOM     26  H   UNL     1     -37.780 156.636   1.846  1.00  0.00    +0.171 HD
ATOM     27  H   UNL     1     -36.020 156.285   2.898  1.00  0.00    +0.171 HD
BRANCH  25  28
ATOM     28  C   UNL     1     -35.544 156.613   4.876  1.00  0.00    +0.042 A 
ATOM     29  C   UNL     1     -34.336 157.262   5.131  1.00  0.00    +0.026 A 
ATOM     30  C   UNL     1     -36.051 155.727   5.836  1.00  0.00    +0.026 A 
ATOM     31  C   UNL     1     -33.639 157.022   6.320  1.00  0.00    +0.002 A 
ATOM     32  C   UNL     1     -35.355 155.487   7.023  1.00  0.00    +0.002 A 
ATOM     33  C   UNL     1     -34.147 156.134   7.265  1.00  0.00    +0.000 A 
ENDBRANCH  25  28
ENDBRANCH  17  22
ENDBRANCH   4  14
BRANCH   9  34
ATOM     34  N   UNL     1     -38.091 165.518  -5.400  1.00  0.00    -0.373 N 
ATOM     35  C   UNL     1     -38.243 164.950  -6.729  1.00  0.00    +0.141 C 
ATOM     36  H   UNL     1     -37.127 165.813  -5.237  1.00  0.00    +0.161 HD
ENDBRANCH   9  34
TORSDOF 5
ENDMDL
MODEL 2
REMARK VINA RESULT:   -10.046      1.247      2.263
REMARK INTER + INTRA:         -13.716
REMARK INTER:                 -13.527
REMARK INTRA:                  -0.189
REMARK UNBOUND:                -0.733
REMARK SMILES CCn1c(=O)c(-c2cc(NC(=O)Nc3ccccc3)c(F)cc2Br)cc2cnc(NC)cc21
REMARK SMILES IDX 3 1 4 2 5 3 6 4 25 5 26 6 27 7 28 8 29 9 32 10 33 11 2 12
REMARK SMILES IDX 1 13 7 14 8 15 23 16 9 17 22 18 20 19 24 20 21 21 10 22
REMARK SMILES IDX 11 23 12 24 13 25 14 28 15 29 19 30 16 31 18 32 17 33 30 34
REMARK SMILES IDX 31 35
REMARK H PARENT 10 26 13 27 30 36
ROOT
ATOM      1  N   UNL     1     -38.737 162.904  -2.325  1.00  0.00    -0.308 N 
ATOM      2  C   UNL     1     -39.011 162.191  -1.155  1.00  0.00    +0.258 C 
ATOM      3  O   UNL     1     -38.987 162.701  -0.034  1.00  0.00    -0.269 OA
ATOM      4  C   UNL     1     -39.359 160.739  -1.297  1.00  0.00    +0.049 C 
ATOM      5  C   UNL     1     -39.390 160.155  -2.503  1.00  0.00    +0.026 C 
ATOM      6  C   UNL     1     -39.066 160.920  -3.697  1.00  0.00    +0.018 A 
ATOM      7  C   UNL     1     -39.061 160.326  -4.954  1.00  0.00    +0.123 A 
ATOM      8  N   UNL     1     -38.761 160.973  -6.100  1.00  0.00    -0.239 NA
ATOM      9  C   UNL     1     -38.449 162.276  -6.008  1.00  0.00    +0.127 A 
ATOM     10  C   UNL     1     -38.415 162.951  -4.792  1.00  0.00    +0.073 A 
ATOM     11  C   UNL     1     -38.736 162.273  -3.610  1.00  0.00    +0.056 A 
ENDROOT
BRANCH   1  12
ATOM     12  C   UNL     1     -38.383 164.316  -2.179  1.00  0.00    +0.122 C 
ATOM     13  C   UNL     1     -39.071 165.189  -3.217  1.00  0.00    +0.028 C 
ENDBRANCH   1  12
BRANCH   4  14
ATOM     14  C   UNL     1     -39.666 159.932  -0.099  1.00  0.00    +0.004 A 
ATOM     15  C   UNL     1     -38.631 159.160   0.464  1.00  0.00    +0.039 A 
ATOM     16  C   UNL     1     -40.942 159.903   0.487  1.00  0.00    +0.029 A 
ATOM     17  C   UNL     1     -38.862 158.370   1.592  1.00  0.00    +0.079 A 
ATOM     18  C   UNL     1     -41.186 159.104   1.605  1.00  0.00    +0.057 A 
ATOM     19  C   UNL     1     -40.151 158.346   2.138  1.00  0.00    +0.147 A 
ATOM     20 Br   UNL     1     -42.388 160.947  -0.174  1.00  0.00    -0.050 Br
ATOM     21  F   UNL     1     -40.394 157.581   3.215  1.00  0.00    -0.205 F 
BRANCH  17  22
ATOM     22  N   UNL     1     -37.884 157.565   2.215  1.00  0.00    -0.305 N 
ATOM     23  C   UNL     1     -37.331 157.738   3.475  1.00  0.00    +0.323 C 
ATOM     24  O   UNL     1     -37.702 158.580   4.282  1.00  0.00    -0.248 OA
ATOM     25  N   UNL     1     -36.313 156.821   3.678  1.00  0.00    -0.308 N 
ATOM     26  H   UNL     1     -37.714 156.675   1.763  1.00  0.00    +0.171 HD
ATOM     27  H   UNL     1     -35.973 156.351   2.854  1.00  0.00    +0.171 HD
BRANCH  25  28
ATOM     28  C   UNL     1     -35.572 156.605   4.859  1.00  0.00    +0.042 A 
ATOM     29  C   UNL     1     -34.395 157.284   5.177  1.00  0.00    +0.026 A 
ATOM     30  C   UNL     1     -36.074 155.663   5.767  1.00  0.00    +0.026 A 
ATOM     31  C   UNL     1     -33.724 157.019   6.376  1.00  0.00    +0.002 A 
ATOM     32  C   UNL     1     -35.404 155.398   6.964  1.00  0.00    +0.002 A 
ATOM     33  C   UNL     1     -34.228 156.076   7.268  1.00  0.00    +0.000 A 
ENDBRANCH  25  28
ENDBRANCH  17  22
ENDBRANCH   4  14
BRANCH   9  34
ATOM     34  N   UNL     1     -38.124 162.900  -7.214  1.00  0.00    -0.373 N 
ATOM     35  C   UNL     1     -38.277 164.345  -7.193  1.00  0.00    +0.141 C 
ATOM     36  H   UNL     1     -38.765 162.475  -7.887  1.00  0.00    +0.161 HD
ENDBRANCH   9  34
TORSDOF 5
ENDMDL
MODEL 3
REMARK VINA RESULT:    -9.086      5.008     12.480
REMARK INTER + INTRA:         -12.475
REMARK INTER:                 -12.949
REMARK INTRA:                   0.474
REMARK UNBOUND:                -0.733
REMARK SMILES CCn1c(=O)c(-c2cc(NC(=O)Nc3ccccc3)c(F)cc2Br)cc2cnc(NC)cc21
REMARK SMILES IDX 3 1 4 2 5 3 6 4 25 5 26 6 27 7 28 8 29 9 32 10 33 11 2 12
REMARK SMILES IDX 1 13 7 14 8 15 23 16 9 17 22 18 20 19 24 20 21 21 10 22
REMARK SMILES IDX 11 23 12 24 13 25 14 28 15 29 19 30 16 31 18 32 17 33 30 34
REMARK SMILES IDX 31 35
REMARK H PARENT 10 26 13 27 30 36
ROOT
ATOM      1  N   UNL     1     -37.433 151.137   5.545  1.00  0.00    -0.308 N 
ATOM      2  C   UNL     1     -37.235 152.457   5.134  1.00  0.00    +0.258 C 
ATOM      3  O   UNL     1     -37.854 152.973   4.203  1.00  0.00    -0.269 OA
ATOM      4  C   UNL     1     -36.220 153.269   5.883  1.00  0.00    +0.049 C 
ATOM      5  C   UNL     1     -35.526 152.734   6.898  1.00  0.00    +0.026 C 
ATOM      6  C   UNL     1     -35.735 151.345   7.278  1.00  0.00    +0.018 A 
ATOM      7  C   UNL     1     -35.004 150.762   8.306  1.00  0.00    +0.123 A 
ATOM      8  N   UNL     1     -35.139 149.478   8.702  1.00  0.00    -0.239 NA
ATOM      9  C   UNL     1     -36.043 148.725   8.054  1.00  0.00    +0.127 A 
ATOM     10  C   UNL     1     -36.810 149.219   7.004  1.00  0.00    +0.073 A 
ATOM     11  C   UNL     1     -36.668 150.554   6.606  1.00  0.00    +0.056 A 
ENDROOT
BRANCH   1  12
ATOM     12  C   UNL     1     -38.412 150.346   4.800  1.00  0.00    +0.122 C 
ATOM     13  C   UNL     1     -39.799 150.418   5.423  1.00  0.00    +0.028 C 
ENDBRANCH   1  12
BRANCH   4  14
ATOM     14  C   UNL     1     -35.968 154.673   5.501  1.00  0.00    +0.004 A 
ATOM     15  C   UNL     1     -37.057 155.442   5.045  1.00  0.00    +0.039 A 
ATOM     16  C   UNL     1     -34.693 155.258   5.569  1.00  0.00    +0.029 A 
ATOM     17  C   UNL     1     -36.879 156.773   4.662  1.00  0.00    +0.079 A 
ATOM     18  C   UNL     1     -34.503 156.582   5.173  1.00  0.00    +0.057 A 
ATOM     19  C   UNL     1     -35.591 157.319   4.720  1.00  0.00    +0.147 A 
ATOM     20 Br   UNL     1     -33.175 154.313   6.216  1.00  0.00    -0.050 Br
ATOM     21  F   UNL     1     -35.400 158.594   4.342  1.00  0.00    -0.205 F 
BRANCH  17  22
ATOM     22  N   UNL     1     -37.913 157.611   4.190  1.00  0.00    -0.305 N 
ATOM     23  C   UNL     1     -38.146 158.001   2.880  1.00  0.00    +0.323 C 
ATOM     24  O   UNL     1     -37.527 157.577   1.913  1.00  0.00    -0.248 OA
ATOM     25  N   UNL     1     -39.176 158.926   2.835  1.00  0.00    -0.308 N 
ATOM     26  H   UNL     1     -38.656 157.785   4.855  1.00  0.00    +0.171 HD
ATOM     27  H   UNL     1     -39.432 159.343   3.717  1.00  0.00    +0.171 HD
BRANCH  25  28
ATOM     28  C   UNL     1     -39.778 159.490   1.690  1.00  0.00    +0.042 A 
ATOM     29  C   UNL     1     -41.106 159.276   1.321  1.00  0.00    +0.026 A 
ATOM     30  C   UNL     1     -38.983 160.331   0.899  1.00  0.00    +0.026 A 
ATOM     31  C   UNL     1     -41.630 159.883   0.173  1.00  0.00    +0.002 A 
ATOM     32  C   UNL     1     -39.506 160.936  -0.247  1.00  0.00    +0.002 A 
ATOM     33  C   UNL     1     -40.830 160.711  -0.610  1.00  0.00    +0.000 A 
ENDBRANCH  25  28
ENDBRANCH  17  22
ENDBRANCH   4  14
BRANCH   9  34
ATOM     34  N   UNL     1     -36.134 147.400   8.482  1.00  0.00    -0.373 N 
ATOM     35  C   UNL     1     -34.871 146.682   8.461  1.00  0.00    +0.141 C 
ATOM     36  H   UNL     1     -36.803 146.981   7.834  1.00  0.00    +0.161 HD
ENDBRANCH   9  34
TORSDOF 5
ENDMDL
MODEL 4
REMARK VINA RESULT:    -8.313      5.285     12.259
REMARK INTER + INTRA:         -11.476
REMARK INTER:                 -11.243
REMARK INTRA:                  -0.233
REMARK UNBOUND:                -0.733
REMARK SMILES CCn1c(=O)c(-c2cc(NC(=O)Nc3ccccc3)c(F)cc2Br)cc2cnc(NC)cc21
REMARK SMILES IDX 3 1 4 2 5 3 6 4 25 5 26 6 27 7 28 8 29 9 32 10 33 11 2 12
REMARK SMILES IDX 1 13 7 14 8 15 23 16 9 17 22 18 20 19 24 20 21 21 10 22
REMARK SMILES IDX 11 23 12 24 13 25 14 28 15 29 19 30 16 31 18 32 17 33 30 34
REMARK SMILES IDX 31 35
REMARK H PARENT 10 26 13 27 30 36
ROOT
ATOM      1  N   UNL     1     -36.056 150.815   5.534  1.00  0.00    -0.308 N 
ATOM      2  C   UNL     1     -35.949 152.205   5.440  1.00  0.00    +0.258 C 
ATOM      3  O   UNL     1     -34.911 152.780   5.112  1.00  0.00    -0.269 OA
ATOM      4  C   UNL     1     -37.174 153.015   5.749  1.00  0.00    +0.049 C 
ATOM      5  C   UNL     1     -38.318 152.418   6.113  1.00  0.00    +0.026 C 
ATOM      6  C   UNL     1     -38.384 150.969   6.233  1.00  0.00    +0.018 A 
ATOM      7  C   UNL     1     -39.550 150.333   6.640  1.00  0.00    +0.123 A 
ATOM      8  N   UNL     1     -39.677 148.995   6.783  1.00  0.00    -0.239 NA
ATOM      9  C   UNL     1     -38.600 148.242   6.510  1.00  0.00    +0.127 A 
ATOM     10  C   UNL     1     -37.386 148.792   6.109  1.00  0.00    +0.073 A 
ATOM     11  C   UNL     1     -37.267 150.178   5.957  1.00  0.00    +0.056 A 
ENDROOT
BRANCH   1  12
ATOM     12  C   UNL     1     -34.854 150.032   5.247  1.00  0.00    +0.122 C 
ATOM     13  C   UNL     1     -34.995 149.213   3.972  1.00  0.00    +0.028 C 
ENDBRANCH   1  12
BRANCH   4  14
ATOM     14  C   UNL     1     -37.128 154.487   5.661  1.00  0.00    +0.004 A 
ATOM     15  C   UNL     1     -37.935 155.121   4.697  1.00  0.00    +0.039 A 
ATOM     16  C   UNL     1     -36.308 155.269   6.493  1.00  0.00    +0.029 A 
ATOM     17  C   UNL     1     -37.928 156.511   4.561  1.00  0.00    +0.079 A 
ATOM     18  C   UNL     1     -36.282 156.657   6.354  1.00  0.00    +0.057 A 
ATOM     19  C   UNL     1     -37.083 157.259   5.390  1.00  0.00    +0.147 A 
ATOM     20 Br   UNL     1     -35.221 154.507   7.854  1.00  0.00    -0.050 Br
ATOM     21  F   UNL     1     -37.053 158.596   5.264  1.00  0.00    -0.205 F 
BRANCH  17  22
ATOM     22  N   UNL     1     -38.701 157.223   3.620  1.00  0.00    -0.305 N 
ATOM     23  C   UNL     1     -38.250 157.873   2.481  1.00  0.00    +0.323 C 
ATOM     24  O   UNL     1     -37.097 157.831   2.073  1.00  0.00    -0.248 OA
ATOM     25  N   UNL     1     -39.292 158.564   1.882  1.00  0.00    -0.308 N 
ATOM     26  H   UNL     1     -39.701 157.081   3.694  1.00  0.00    +0.171 HD
ATOM     27  H   UNL     1     -40.117 158.692   2.447  1.00  0.00    +0.171 HD
BRANCH  25  28
ATOM     28  C   UNL     1     -39.268 159.267   0.659  1.00  0.00    +0.042 A 
ATOM     29  C   UNL     1     -39.363 160.655   0.555  1.00  0.00    +0.026 A 
ATOM     30  C   UNL     1     -39.118 158.510  -0.511  1.00  0.00    +0.026 A 
ATOM     31  C   UNL     1     -39.320 161.277  -0.697  1.00  0.00    +0.002 A 
ATOM     32  C   UNL     1     -39.076 159.131  -1.762  1.00  0.00    +0.002 A 
ATOM     33  C   UNL     1     -39.179 160.516  -1.855  1.00  0.00    +0.000 A 
ENDBRANCH  25  28
ENDBRANCH  17  22
ENDBRANCH   4  14
BRANCH   9  34
ATOM     34  N   UNL     1     -38.770 146.868   6.691  1.00  0.00    -0.373 N 
ATOM     35  C   UNL     1     -40.116 146.484   7.085  1.00  0.00    +0.141 C 
ATOM     36  H   UNL     1     -38.095 146.634   7.420  1.00  0.00    +0.161 HD
ENDBRANCH   9  34
TORSDOF 5
ENDMDL
MODEL 5
REMARK VINA RESULT:    -8.274     11.173     13.112
REMARK INTER + INTRA:         -11.426
REMARK INTER:                 -10.699
REMARK INTRA:                  -0.727
REMARK UNBOUND:                -0.733
REMARK SMILES CCn1c(=O)c(-c2cc(NC(=O)Nc3ccccc3)c(F)cc2Br)cc2cnc(NC)cc21
REMARK SMILES IDX 3 1 4 2 5 3 6 4 25 5 26 6 27 7 28 8 29 9 32 10 33 11 2 12
REMARK SMILES IDX 1 13 7 14 8 15 23 16 9 17 22 18 20 19 24 20 21 21 10 22
REMARK SMILES IDX 11 23 12 24 13 25 14 28 15 29 19 30 16 31 18 32 17 33 30 34
REMARK SMILES IDX 31 35
REMARK H PARENT 10 26 13 27 30 36
ROOT
ATOM      1  N   UNL     1     -35.784 147.190  -0.828  1.00  0.00    -0.308 N 
ATOM      2  C   UNL     1     -35.282 147.114   0.474  1.00  0.00    +0.258 C 
ATOM      3  O   UNL     1     -34.082 147.005   0.728  1.00  0.00    -0.269 OA
ATOM      4  C   UNL     1     -36.270 147.180   1.601  1.00  0.00    +0.049 C 
ATOM      5  C   UNL     1     -37.583 147.295   1.356  1.00  0.00    +0.026 C 
ATOM      6  C   UNL     1     -38.074 147.338  -0.013  1.00  0.00    +0.018 A 
ATOM      7  C   UNL     1     -39.433 147.424  -0.289  1.00  0.00    +0.123 A 
ATOM      8  N   UNL     1     -39.957 147.457  -1.533  1.00  0.00    -0.239 NA
ATOM      9  C   UNL     1     -39.098 147.404  -2.564  1.00  0.00    +0.127 A 
ATOM     10  C   UNL     1     -37.721 147.303  -2.385  1.00  0.00    +0.073 A 
ATOM     11  C   UNL     1     -37.189 147.278  -1.090  1.00  0.00    +0.056 A 
ENDROOT
BRANCH   1  12
ATOM     12  C   UNL     1     -34.816 147.109  -1.922  1.00  0.00    +0.122 C 
ATOM     13  C   UNL     1     -34.574 145.674  -2.367  1.00  0.00    +0.028 C 
ENDBRANCH   1  12
BRANCH   4  14
ATOM     14  C   UNL     1     -35.802 147.112   2.999  1.00  0.00    +0.004 A 
ATOM     15  C   UNL     1     -35.310 148.290   3.594  1.00  0.00    +0.039 A 
ATOM     16  C   UNL     1     -35.824 145.922   3.747  1.00  0.00    +0.029 A 
ATOM     17  C   UNL     1     -34.845 148.285   4.911  1.00  0.00    +0.079 A 
ATOM     18  C   UNL     1     -35.348 145.904   5.057  1.00  0.00    +0.057 A 
ATOM     19  C   UNL     1     -34.860 147.078   5.620  1.00  0.00    +0.147 A 
ATOM     20 Br   UNL     1     -36.514 144.295   3.045  1.00  0.00    -0.050 Br
ATOM     21  F   UNL     1     -34.405 147.052   6.883  1.00  0.00    -0.205 F 
BRANCH  17  22
ATOM     22  N   UNL     1     -34.333 149.418   5.578  1.00  0.00    -0.305 N 
ATOM     23  C   UNL     1     -34.885 150.689   5.619  1.00  0.00    +0.323 C 
ATOM     24  O   UNL     1     -35.976 150.984   5.151  1.00  0.00    -0.248 OA
ATOM     25  N   UNL     1     -34.025 151.561   6.268  1.00  0.00    -0.308 N 
ATOM     26  H   UNL     1     -33.591 149.224   6.239  1.00  0.00    +0.171 HD
ATOM     27  H   UNL     1     -33.079 151.234   6.395  1.00  0.00    +0.171 HD
BRANCH  25  28
ATOM     28  C   UNL     1     -34.257 152.912   6.600  1.00  0.00    +0.042 A 
ATOM     29  C   UNL     1     -35.362 153.358   7.327  1.00  0.00    +0.026 A 
ATOM     30  C   UNL     1     -33.299 153.847   6.186  1.00  0.00    +0.026 A 
ATOM     31  C   UNL     1     -35.514 154.717   7.625  1.00  0.00    +0.002 A 
ATOM     32  C   UNL     1     -33.451 155.204   6.482  1.00  0.00    +0.002 A 
ATOM     33  C   UNL     1     -34.560 155.639   7.202  1.00  0.00    +0.000 A 
ENDBRANCH  25  28
ENDBRANCH  17  22
ENDBRANCH   4  14
BRANCH   9  34
ATOM     34  N   UNL     1     -39.683 147.420  -3.832  1.00  0.00    -0.373 N 
ATOM     35  C   UNL     1     -40.931 146.679  -3.917  1.00  0.00    +0.141 C 
ATOM     36  H   UNL     1     -38.970 147.005  -4.433  1.00  0.00    +0.161 HD
ENDBRANCH   9  34
TORSDOF 5
ENDMDL
MODEL 6
REMARK VINA RESULT:    -8.164     10.205     12.537
REMARK INTER + INTRA:         -11.284
REMARK INTER:                 -10.329
REMARK INTRA:                  -0.955
REMARK UNBOUND:                -0.733
REMARK SMILES CCn1c(=O)c(-c2cc(NC(=O)Nc3ccccc3)c(F)cc2Br)cc2cnc(NC)cc21
REMARK SMILES IDX 3 1 4 2 5 3 6 4 25 5 26 6 27 7 28 8 29 9 32 10 33 11 2 12
REMARK SMILES IDX 1 13 7 14 8 15 23 16 9 17 22 18 20 19 24 20 21 21 10 22
REMARK SMILES IDX 11 23 12 24 13 25 14 28 15 29 19 30 16 31 18 32 17 33 30 34
REMARK SMILES IDX 31 35
REMARK H PARENT 10 26 13 27 30 36
ROOT
ATOM      1  N   UNL     1     -36.187 148.242   0.080  1.00  0.00    -0.308 N 
ATOM      2  C   UNL     1     -35.703 148.428   1.377  1.00  0.00    +0.258 C 
ATOM      3  O   UNL     1     -34.537 148.740   1.623  1.00  0.00    -0.269 OA
ATOM      4  C   UNL     1     -36.670 148.243   2.509  1.00  0.00    +0.049 C 
ATOM      5  C   UNL     1     -37.945 147.899   2.274  1.00  0.00    +0.026 C 
ATOM      6  C   UNL     1     -38.406 147.681   0.911  1.00  0.00    +0.018 A 
ATOM      7  C   UNL     1     -39.715 147.293   0.647  1.00  0.00    +0.123 A 
ATOM      8  N   UNL     1     -40.206 147.065  -0.590  1.00  0.00    -0.239 NA
ATOM      9  C   UNL     1     -39.366 147.226  -1.626  1.00  0.00    +0.127 A 
ATOM     10  C   UNL     1     -38.036 147.599  -1.457  1.00  0.00    +0.073 A 
ATOM     11  C   UNL     1     -37.539 147.842  -0.171  1.00  0.00    +0.056 A 
ENDROOT
BRANCH   1  12
ATOM     12  C   UNL     1     -35.236 148.410  -1.018  1.00  0.00    +0.122 C 
ATOM     13  C   UNL     1     -34.511 147.114  -1.350  1.00  0.00    +0.028 C 
ENDBRANCH   1  12
BRANCH   4  14
ATOM     14  C   UNL     1     -36.222 148.430   3.902  1.00  0.00    +0.004 A 
ATOM     15  C   UNL     1     -36.415 149.692   4.498  1.00  0.00    +0.039 A 
ATOM     16  C   UNL     1     -35.608 147.407   4.644  1.00  0.00    +0.029 A 
ATOM     17  C   UNL     1     -36.004 149.932   5.811  1.00  0.00    +0.079 A 
ATOM     18  C   UNL     1     -35.180 147.642   5.950  1.00  0.00    +0.057 A 
ATOM     19  C   UNL     1     -35.375 148.898   6.514  1.00  0.00    +0.147 A 
ATOM     20 Br   UNL     1     -35.348 145.659   3.941  1.00  0.00    -0.050 Br
ATOM     21  F   UNL     1     -34.961 149.115   7.773  1.00  0.00    -0.205 F 
BRANCH  17  22
ATOM     22  N   UNL     1     -36.156 151.166   6.480  1.00  0.00    -0.305 N 
ATOM     23  C   UNL     1     -35.597 152.385   6.130  1.00  0.00    +0.323 C 
ATOM     24  O   UNL     1     -34.958 152.583   5.105  1.00  0.00    -0.248 OA
ATOM     25  N   UNL     1     -35.874 153.333   7.102  1.00  0.00    -0.308 N 
ATOM     26  H   UNL     1     -36.896 151.188   7.171  1.00  0.00    +0.171 HD
ATOM     27  H   UNL     1     -36.209 152.975   7.983  1.00  0.00    +0.171 HD
BRANCH  25  28
ATOM     28  C   UNL     1     -35.569 154.710   7.074  1.00  0.00    +0.042 A 
ATOM     29  C   UNL     1     -34.271 155.221   7.019  1.00  0.00    +0.026 A 
ATOM     30  C   UNL     1     -36.647 155.605   7.081  1.00  0.00    +0.026 A 
ATOM     31  C   UNL     1     -34.054 156.603   6.984  1.00  0.00    +0.002 A 
ATOM     32  C   UNL     1     -36.430 156.985   7.045  1.00  0.00    +0.002 A 
ATOM     33  C   UNL     1     -35.132 157.484   6.998  1.00  0.00    +0.000 A 
ENDBRANCH  25  28
ENDBRANCH  17  22
ENDBRANCH   4  14
BRANCH   9  34
ATOM     34  N   UNL     1     -39.910 146.959  -2.884  1.00  0.00    -0.373 N 
ATOM     35  C   UNL     1     -40.883 145.879  -2.891  1.00  0.00    +0.141 C 
ATOM     36  H   UNL     1     -39.096 146.722  -3.453  1.00  0.00    +0.161 HD
ENDBRANCH   9  34
TORSDOF 5
ENDMDL
MODEL 7
REMARK VINA RESULT:    -8.019      8.582     12.988
REMARK INTER + INTRA:         -11.096
REMARK INTER:                  -9.974
REMARK INTRA:                  -1.122
REMARK UNBOUND:                -0.733
REMARK SMILES CCn1c(=O)c(-c2cc(NC(=O)Nc3ccccc3)c(F)cc2Br)cc2cnc(NC)cc21
REMARK SMILES IDX 3 1 4 2 5 3 6 4 25 5 26 6 27 7 28 8 29 9 32 10 33 11 2 12
REMARK SMILES IDX 1 13 7 14 8 15 23 16 9 17 22 18 20 19 24 20 21 21 10 22
REMARK SMILES IDX 11 23 12 24 13 25 14 28 15 29 19 30 16 31 18 32 17 33 30 34
REMARK SMILES IDX 31 35
REMARK H PARENT 10 26 13 27 30 36
ROOT
ATOM      1  N   UNL     1     -36.879 147.719   1.782  1.00  0.00    -0.308 N 
ATOM      2  C   UNL     1     -36.890 148.384   3.011  1.00  0.00    +0.258 C 
ATOM      3  O   UNL     1     -37.903 148.889   3.495  1.00  0.00    -0.269 OA
ATOM      4  C   UNL     1     -35.595 148.465   3.764  1.00  0.00    +0.049 C 
ATOM      5  C   UNL     1     -34.473 147.929   3.262  1.00  0.00    +0.026 C 
ATOM      6  C   UNL     1     -34.492 147.273   1.963  1.00  0.00    +0.018 A 
ATOM      7  C   UNL     1     -33.334 146.738   1.410  1.00  0.00    +0.123 A 
ATOM      8  N   UNL     1     -33.278 146.126   0.207  1.00  0.00    -0.239 NA
ATOM      9  C   UNL     1     -34.421 146.033  -0.490  1.00  0.00    +0.127 A 
ATOM     10  C   UNL     1     -35.626 146.550  -0.023  1.00  0.00    +0.073 A 
ATOM     11  C   UNL     1     -35.675 147.176   1.229  1.00  0.00    +0.056 A 
ENDROOT
BRANCH   1  12
ATOM     12  C   UNL     1     -38.141 147.656   1.046  1.00  0.00    +0.122 C 
ATOM     13  C   UNL     1     -38.943 146.409   1.389  1.00  0.00    +0.028 C 
ENDBRANCH   1  12
BRANCH   4  14
ATOM     14  C   UNL     1     -35.542 149.149   5.071  1.00  0.00    +0.004 A 
ATOM     15  C   UNL     1     -35.252 150.528   5.088  1.00  0.00    +0.039 A 
ATOM     16  C   UNL     1     -35.760 148.478   6.286  1.00  0.00    +0.029 A 
ATOM     17  C   UNL     1     -35.180 151.228   6.294  1.00  0.00    +0.079 A 
ATOM     18  C   UNL     1     -35.674 149.166   7.496  1.00  0.00    +0.057 A 
ATOM     19  C   UNL     1     -35.380 150.524   7.488  1.00  0.00    +0.147 A 
ATOM     20 Br   UNL     1     -36.203 146.630   6.359  1.00  0.00    -0.050 Br
ATOM     21  F   UNL     1     -35.301 151.178   8.658  1.00  0.00    -0.205 F 
BRANCH  17  22
ATOM     22  N   UNL     1     -34.891 152.605   6.399  1.00  0.00    -0.305 N 
ATOM     23  C   UNL     1     -35.692 153.664   5.999  1.00  0.00    +0.323 C 
ATOM     24  O   UNL     1     -36.836 153.545   5.581  1.00  0.00    -0.248 OA
ATOM     25  N   UNL     1     -35.010 154.861   6.150  1.00  0.00    -0.308 N 
ATOM     26  H   UNL     1     -34.104 152.832   6.994  1.00  0.00    +0.171 HD
ATOM     27  H   UNL     1     -34.014 154.785   6.287  1.00  0.00    +0.171 HD
BRANCH  25  28
ATOM     28  C   UNL     1     -35.506 156.166   5.949  1.00  0.00    +0.042 A 
ATOM     29  C   UNL     1     -36.026 156.969   6.965  1.00  0.00    +0.026 A 
ATOM     30  C   UNL     1     -35.446 156.679   4.646  1.00  0.00    +0.026 A 
ATOM     31  C   UNL     1     -36.489 158.259   6.683  1.00  0.00    +0.002 A 
ATOM     32  C   UNL     1     -35.908 157.967   4.364  1.00  0.00    +0.002 A 
ATOM     33  C   UNL     1     -36.431 158.757   5.384  1.00  0.00    +0.000 A 
ENDBRANCH  25  28
ENDBRANCH  17  22
ENDBRANCH   4  14
BRANCH   9  34
ATOM     34  N   UNL     1     -34.313 145.412  -1.736  1.00  0.00    -0.373 N 
ATOM     35  C   UNL     1     -35.185 145.972  -2.755  1.00  0.00    +0.141 C 
ATOM     36  H   UNL     1     -34.555 144.438  -1.543  1.00  0.00    +0.161 HD
ENDBRANCH   9  34
TORSDOF 5
ENDMDL
MODEL 8
REMARK VINA RESULT:    -7.922     10.083     12.658
REMARK INTER + INTRA:         -10.972
REMARK INTER:                  -9.925
REMARK INTRA:                  -1.046
REMARK UNBOUND:                -0.733
REMARK SMILES CCn1c(=O)c(-c2cc(NC(=O)Nc3ccccc3)c(F)cc2Br)cc2cnc(NC)cc21
REMARK SMILES IDX 3 1 4 2 5 3 6 4 25 5 26 6 27 7 28 8 29 9 32 10 33 11 2 12
REMARK SMILES IDX 1 13 7 14 8 15 23 16 9 17 22 18 20 19 24 20 21 21 10 22
REMARK SMILES IDX 11 23 12 24 13 25 14 28 15 29 19 30 16 31 18 32 17 33 30 34
REMARK SMILES IDX 31 35
REMARK H PARENT 10 26 13 27 30 36
ROOT
ATOM      1  N   UNL     1     -39.159 147.220   1.744  1.00  0.00    -0.308 N 
ATOM      2  C   UNL     1     -38.541 147.513   2.963  1.00  0.00    +0.258 C 
ATOM      3  O   UNL     1     -39.085 147.338   4.054  1.00  0.00    -0.269 OA
ATOM      4  C   UNL     1     -37.144 148.058   2.916  1.00  0.00    +0.049 C 
ATOM      5  C   UNL     1     -36.527 148.265   1.744  1.00  0.00    +0.026 C 
ATOM      6  C   UNL     1     -37.213 147.979   0.492  1.00  0.00    +0.018 A 
ATOM      7  C   UNL     1     -36.603 148.216  -0.734  1.00  0.00    +0.123 A 
ATOM      8  N   UNL     1     -37.185 147.983  -1.930  1.00  0.00    -0.239 NA
ATOM      9  C   UNL     1     -38.434 147.491  -1.923  1.00  0.00    +0.127 A 
ATOM     10  C   UNL     1     -39.129 147.236  -0.744  1.00  0.00    +0.073 A 
ATOM     11  C   UNL     1     -38.513 147.472   0.491  1.00  0.00    +0.056 A 
ENDROOT
BRANCH   1  12
ATOM     12  C   UNL     1     -40.526 146.703   1.797  1.00  0.00    +0.122 C 
ATOM     13  C   UNL     1     -40.565 145.182   1.786  1.00  0.00    +0.028 C 
ENDBRANCH   1  12
BRANCH   4  14
ATOM     14  C   UNL     1     -36.435 148.383   4.169  1.00  0.00    +0.004 A 
ATOM     15  C   UNL     1     -36.649 149.651   4.744  1.00  0.00    +0.039 A 
ATOM     16  C   UNL     1     -35.557 147.483   4.796  1.00  0.00    +0.029 A 
ATOM     17  C   UNL     1     -35.999 150.018   5.925  1.00  0.00    +0.079 A 
ATOM     18  C   UNL     1     -34.891 147.847   5.966  1.00  0.00    +0.057 A 
ATOM     19  C   UNL     1     -35.114 149.106   6.511  1.00  0.00    +0.147 A 
ATOM     20 Br   UNL     1     -35.242 145.734   4.119  1.00  0.00    -0.050 Br
ATOM     21  F   UNL     1     -34.470 149.448   7.639  1.00  0.00    -0.205 F 
BRANCH  17  22
ATOM     22  N   UNL     1     -36.154 151.267   6.563  1.00  0.00    -0.305 N 
ATOM     23  C   UNL     1     -35.608 152.482   6.176  1.00  0.00    +0.323 C 
ATOM     24  O   UNL     1     -34.980 152.658   5.141  1.00  0.00    -0.248 OA
ATOM     25  N   UNL     1     -35.883 153.452   7.126  1.00  0.00    -0.308 N 
ATOM     26  H   UNL     1     -36.887 151.301   7.261  1.00  0.00    +0.171 HD
ATOM     27  H   UNL     1     -36.206 153.114   8.020  1.00  0.00    +0.171 HD
BRANCH  25  28
ATOM     28  C   UNL     1     -35.588 154.830   7.060  1.00  0.00    +0.042 A 
ATOM     29  C   UNL     1     -34.295 155.353   7.072  1.00  0.00    +0.026 A 
ATOM     30  C   UNL     1     -36.672 155.712   6.955  1.00  0.00    +0.026 A 
ATOM     31  C   UNL     1     -34.087 156.735   6.991  1.00  0.00    +0.002 A 
ATOM     32  C   UNL     1     -36.466 157.091   6.875  1.00  0.00    +0.002 A 
ATOM     33  C   UNL     1     -35.172 157.603   6.895  1.00  0.00    +0.000 A 
ENDBRANCH  25  28
ENDBRANCH  17  22
ENDBRANCH   4  14
BRANCH   9  34
ATOM     34  N   UNL     1     -39.004 147.286  -3.180  1.00  0.00    -0.373 N 
ATOM     35  C   UNL     1     -40.436 147.038  -3.148  1.00  0.00    +0.141 C 
ATOM     36  H   UNL     1     -38.501 146.476  -3.545  1.00  0.00    +0.161 HD
ENDBRANCH   9  34
TORSDOF 5
ENDMDL
MODEL 9
REMARK VINA RESULT:    -7.743      9.500     12.969
REMARK INTER + INTRA:         -10.740
REMARK INTER:                  -9.769
REMARK INTRA:                  -0.971
REMARK UNBOUND:                -0.733
REMARK SMILES CCn1c(=O)c(-c2cc(NC(=O)Nc3ccccc3)c(F)cc2Br)cc2cnc(NC)cc21
REMARK SMILES IDX 3 1 4 2 5 3 6 4 25 5 26 6 27 7 28 8 29 9 32 10 33 11 2 12
REMARK SMILES IDX 1 13 7 14 8 15 23 16 9 17 22 18 20 19 24 20 21 21 10 22
REMARK SMILES IDX 11 23 12 24 13 25 14 28 15 29 19 30 16 31 18 32 17 33 30 34
REMARK SMILES IDX 31 35
REMARK H PARENT 10 26 13 27 30 36
ROOT
ATOM      1  N   UNL     1     -35.950 151.577   6.672  1.00  0.00    -0.308 N 
ATOM      2  C   UNL     1     -36.608 150.530   6.021  1.00  0.00    +0.258 C 
ATOM      3  O   UNL     1     -36.310 149.346   6.178  1.00  0.00    -0.269 OA
ATOM      4  C   UNL     1     -37.735 150.890   5.098  1.00  0.00    +0.049 C 
ATOM      5  C   UNL     1     -38.080 152.171   4.903  1.00  0.00    +0.026 C 
ATOM      6  C   UNL     1     -37.351 153.238   5.572  1.00  0.00    +0.018 A 
ATOM      7  C   UNL     1     -37.672 154.573   5.359  1.00  0.00    +0.123 A 
ATOM      8  N   UNL     1     -37.031 155.611   5.938  1.00  0.00    -0.239 NA
ATOM      9  C   UNL     1     -36.020 155.323   6.773  1.00  0.00    +0.127 A 
ATOM     10  C   UNL     1     -35.619 154.016   7.037  1.00  0.00    +0.073 A 
ATOM     11  C   UNL     1     -36.296 152.947   6.438  1.00  0.00    +0.056 A 
ENDROOT
BRANCH   1  12
ATOM     12  C   UNL     1     -34.843 151.221   7.558  1.00  0.00    +0.122 C 
ATOM     13  C   UNL     1     -35.324 150.835   8.949  1.00  0.00    +0.028 C 
ENDBRANCH   1  12
BRANCH   4  14
ATOM     14  C   UNL     1     -38.474 149.830   4.386  1.00  0.00    +0.004 A 
ATOM     15  C   UNL     1     -37.964 149.379   3.152  1.00  0.00    +0.039 A 
ATOM     16  C   UNL     1     -39.659 149.266   4.886  1.00  0.00    +0.029 A 
ATOM     17  C   UNL     1     -38.624 148.384   2.427  1.00  0.00    +0.079 A 
ATOM     18  C   UNL     1     -40.333 148.283   4.162  1.00  0.00    +0.057 A 
ATOM     19  C   UNL     1     -39.815 147.860   2.944  1.00  0.00    +0.147 A 
ATOM     20 Br   UNL     1     -40.397 149.776   6.563  1.00  0.00    -0.050 Br
ATOM     21  F   UNL     1     -40.469 146.912   2.253  1.00  0.00    -0.205 F 
BRANCH  17  22
ATOM     22  N   UNL     1     -38.184 147.881   1.184  1.00  0.00    -0.305 N 
ATOM     23  C   UNL     1     -36.942 147.339   0.889  1.00  0.00    +0.323 C 
ATOM     24  O   UNL     1     -36.068 147.125   1.718  1.00  0.00    -0.248 OA
ATOM     25  N   UNL     1     -36.848 147.075  -0.468  1.00  0.00    -0.308 N 
ATOM     26  H   UNL     1     -38.916 147.737   0.500  1.00  0.00    +0.171 HD
ATOM     27  H   UNL     1     -37.548 147.508  -1.050  1.00  0.00    +0.171 HD
BRANCH  25  28
ATOM     28  C   UNL     1     -35.790 146.436  -1.149  1.00  0.00    +0.042 A 
ATOM     29  C   UNL     1     -35.845 145.123  -1.618  1.00  0.00    +0.026 A 
ATOM     30  C   UNL     1     -34.630 147.188  -1.379  1.00  0.00    +0.026 A 
ATOM     31  C   UNL     1     -34.754 144.565  -2.295  1.00  0.00    +0.002 A 
ATOM     32  C   UNL     1     -33.541 146.631  -2.055  1.00  0.00    +0.002 A 
ATOM     33  C   UNL     1     -33.604 145.318  -2.512  1.00  0.00    +0.000 A 
ENDBRANCH  25  28
ENDBRANCH  17  22
ENDBRANCH   4  14
BRANCH   9  34
ATOM     34  N   UNL     1     -35.373 156.426   7.333  1.00  0.00    -0.373 N 
ATOM     35  C   UNL     1     -35.909 157.707   6.904  1.00  0.00    +0.141 C 
ATOM     36  H   UNL     1     -34.404 156.316   7.031  1.00  0.00    +0.161 HD
ENDBRANCH   9  34
TORSDOF 5
ENDMDL
MODEL 10
REMARK VINA RESULT:    -7.653      9.689     13.255
REMARK INTER + INTRA:         -10.623
REMARK INTER:                 -10.086
REMARK INTRA:                  -0.537
REMARK UNBOUND:                -0.733
REMARK SMILES CCn1c(=O)c(-c2cc(NC(=O)Nc3ccccc3)c(F)cc2Br)cc2cnc(NC)cc21
REMARK SMILES IDX 3 1 4 2 5 3 6 4 25 5 26 6 27 7 28 8 29 9 32 10 33 11 2 12
REMARK SMILES IDX 1 13 7 14 8 15 23 16 9 17 22 18 20 19 24 20 21 21 10 22
REMARK SMILES IDX 11 23 12 24 13 25 14 28 15 29 19 30 16 31 18 32 17 33 30 34
REMARK SMILES IDX 31 35
REMARK H PARENT 10 26 13 27 30 36
ROOT
ATOM      1  N   UNL     1     -36.560 152.976   5.766  1.00  0.00    -0.308 N 
ATOM      2  C   UNL     1     -36.575 151.579   5.815  1.00  0.00    +0.258 C 
ATOM      3  O   UNL     1     -37.606 150.912   5.719  1.00  0.00    -0.269 OA
ATOM      4  C   UNL     1     -35.258 150.880   5.984  1.00  0.00    +0.049 C 
ATOM      5  C   UNL     1     -34.119 151.578   6.096  1.00  0.00    +0.026 C 
ATOM      6  C   UNL     1     -34.145 153.033   6.074  1.00  0.00    +0.018 A 
ATOM      7  C   UNL     1     -32.980 153.776   6.220  1.00  0.00    +0.123 A 
ATOM      8  N   UNL     1     -32.933 155.126   6.219  1.00  0.00    -0.239 NA
ATOM      9  C   UNL     1     -34.095 155.782   6.065  1.00  0.00    +0.127 A 
ATOM     10  C   UNL     1     -35.312 155.123   5.925  1.00  0.00    +0.073 A 
ATOM     11  C   UNL     1     -35.348 153.723   5.919  1.00  0.00    +0.056 A 
ENDROOT
BRANCH   1  12
ATOM     12  C   UNL     1     -37.848 153.652   5.616  1.00  0.00    +0.122 C 
ATOM     13  C   UNL     1     -38.415 154.107   6.953  1.00  0.00    +0.028 C 
ENDBRANCH   1  12
BRANCH   4  14
ATOM     14  C   UNL     1     -35.206 149.406   6.038  1.00  0.00    +0.004 A 
ATOM     15  C   UNL     1     -35.168 148.698   4.821  1.00  0.00    +0.039 A 
ATOM     16  C   UNL     1     -35.201 148.692   7.248  1.00  0.00    +0.029 A 
ATOM     17  C   UNL     1     -35.126 147.302   4.807  1.00  0.00    +0.079 A 
ATOM     18  C   UNL     1     -35.175 147.298   7.245  1.00  0.00    +0.057 A 
ATOM     19  C   UNL     1     -35.145 146.622   6.031  1.00  0.00    +0.147 A 
ATOM     20 Br   UNL     1     -35.202 149.562   8.940  1.00  0.00    -0.050 Br
ATOM     21  F   UNL     1     -35.119 145.279   6.036  1.00  0.00    -0.205 F 
BRANCH  17  22
ATOM     22  N   UNL     1     -35.091 146.518   3.635  1.00  0.00    -0.305 N 
ATOM     23  C   UNL     1     -35.019 146.968   2.325  1.00  0.00    +0.323 C 
ATOM     24  O   UNL     1     -34.870 148.139   2.005  1.00  0.00    -0.248 OA
ATOM     25  N   UNL     1     -35.134 145.902   1.448  1.00  0.00    -0.308 N 
ATOM     26  H   UNL     1     -34.915 145.532   3.786  1.00  0.00    +0.171 HD
ATOM     27  H   UNL     1     -35.476 145.040   1.845  1.00  0.00    +0.171 HD
BRANCH  25  28
ATOM     28  C   UNL     1     -35.013 145.926   0.042  1.00  0.00    +0.042 A 
ATOM     29  C   UNL     1     -33.814 145.720  -0.642  1.00  0.00    +0.026 A 
ATOM     30  C   UNL     1     -36.182 146.151  -0.696  1.00  0.00    +0.026 A 
ATOM     31  C   UNL     1     -33.782 145.749  -2.041  1.00  0.00    +0.002 A 
ATOM     32  C   UNL     1     -36.150 146.181  -2.093  1.00  0.00    +0.002 A 
ATOM     33  C   UNL     1     -34.948 145.981  -2.765  1.00  0.00    +0.000 A 
ENDBRANCH  25  28
ENDBRANCH  17  22
ENDBRANCH   4  14
BRANCH   9  34
ATOM     34  N   UNL     1     -34.003 157.175   6.091  1.00  0.00    -0.373 N 
ATOM     35  C   UNL     1     -33.029 157.722   5.161  1.00  0.00    +0.141 C 
ATOM     36  H   UNL     1     -33.742 157.383   7.057  1.00  0.00    +0.161 HD
ENDBRANCH   9  34
TORSDOF 5
ENDMDL
