REMARK SMILES CNC(=O)c1cc(Oc2ccc(NC(=O)Nc3ccc(Cl)c(C(F)(F)F)c3)cc2)ccn1
REMARK SMILES IDX 9 1 10 2 11 3 12 4 28 5 29 6 8 7 7 8 5 9 6 10 32 11 31 12
REMARK SMILES IDX 30 13 3 14 2 15 4 16 1 17 13 19 14 20 15 21 16 22 17 25
REMARK SMILES IDX 18 26 27 27 19 28 22 29 20 30 21 31 23 32 24 33 25 34 26 35
REMARK H PARENT 2 18 13 23 16 24
ROOT
ATOM      1  C   UNL     1       2.029  -0.496  -1.056  1.00  0.00    +0.127 A 
ATOM      2  C   UNL     1       1.027  -1.368  -1.473  1.00  0.00    +0.049 A 
ATOM      3  C   UNL     1      -0.317  -1.046  -1.259  1.00  0.00    +0.030 A 
ATOM      4  C   UNL     1      -0.669   0.160  -0.647  1.00  0.00    +0.043 A 
ATOM      5  C   UNL     1       0.349   1.039  -0.249  1.00  0.00    +0.030 A 
ATOM      6  C   UNL     1       1.693   0.718  -0.459  1.00  0.00    +0.049 A 
ENDROOT
BRANCH   1   7
ATOM      7  O   UNL     1       3.331  -0.851  -1.320  1.00  0.00    -0.457 OA
BRANCH   7   8
ATOM      8  C   UNL     1       4.214  -0.805  -0.265  1.00  0.00    +0.131 A 
ATOM      9  C   UNL     1       6.358  -0.201   0.547  1.00  0.00    +0.131 A 
ATOM     10  C   UNL     1       5.451  -0.221  -0.500  1.00  0.00    +0.081 A 
ATOM     11  N   UNL     1       6.111  -0.727   1.782  1.00  0.00    -0.251 NA
ATOM     12  C   UNL     1       4.905  -1.308   1.958  1.00  0.00    +0.116 A 
ATOM     13  C   UNL     1       3.933  -1.376   0.975  1.00  0.00    +0.067 A 
BRANCH   9  14
ATOM     14  C   UNL     1       7.702   0.436   0.355  1.00  0.00    +0.269 C 
ATOM     15  N   UNL     1       8.533   0.343   1.451  1.00  0.00    -0.354 N 
ATOM     16  O   UNL     1       8.003   0.996  -0.692  1.00  0.00    -0.268 OA
ATOM     17  C   UNL     1       9.812   0.995   1.508  1.00  0.00    +0.143 C 
ATOM     18  H   UNL     1       8.121  -0.059   2.290  1.00  0.00    +0.163 HD
ENDBRANCH   9  14
ENDBRANCH   7   8
ENDBRANCH   1   7
BRANCH   4  19
ATOM     19  N   UNL     1      -1.998   0.557  -0.389  1.00  0.00    -0.308 N 
ATOM     20  C   UNL     1      -3.165  -0.074  -0.799  1.00  0.00    +0.323 C 
ATOM     21  O   UNL     1      -3.216  -1.054  -1.529  1.00  0.00    -0.248 OA
ATOM     22  N   UNL     1      -4.271   0.567  -0.255  1.00  0.00    -0.308 N 
ATOM     23  H   UNL     1      -2.109   1.469   0.025  1.00  0.00    +0.171 HD
ATOM     24  H   UNL     1      -4.080   1.197   0.509  1.00  0.00    +0.171 HD
BRANCH  22  25
ATOM     25  C   UNL     1      -5.630   0.296  -0.514  1.00  0.00    +0.043 A 
ATOM     26  C   UNL     1      -6.078  -0.562  -1.516  1.00  0.00    +0.028 A 
ATOM     27  C   UNL     1      -6.579   0.954   0.281  1.00  0.00    +0.040 A 
ATOM     28  C   UNL     1      -7.447  -0.768  -1.712  1.00  0.00    +0.023 A 
ATOM     29  C   UNL     1      -7.964   0.757   0.096  1.00  0.00    +0.076 A 
ATOM     30  C   UNL     1      -8.386  -0.115  -0.911  1.00  0.00    +0.053 A 
ATOM     31 Cl   UNL     1     -10.055  -0.425  -1.219  1.00  0.00    -0.084 Cl
BRANCH  29  32
ATOM     32  C   UNL     1      -8.949   1.479   0.974  1.00  0.00    +0.417 C 
ATOM     33  F   UNL     1      -9.784   2.299   0.280  1.00  0.00    -0.166 F 
ATOM     34  F   UNL     1      -9.739   0.640   1.698  1.00  0.00    -0.166 F 
ATOM     35  F   UNL     1      -8.342   2.284   1.896  1.00  0.00    -0.166 F 
ENDBRANCH  29  32
ENDBRANCH  22  25
ENDBRANCH   4  19
TORSDOF 6
