MODEL 1
REMARK VINA RESULT:   -11.148      0.000      0.000
REMARK INTER + INTRA:         -15.337
REMARK INTER:                 -15.058
REMARK INTRA:                  -0.279
REMARK UNBOUND:                -0.279
REMARK SMILES CNC(=O)c1cc(Oc2ccc(NC(=O)Nc3ccc(Cl)c(C(F)(F)F)c3)cc2)ccn1
REMARK SMILES IDX 9 1 10 2 11 3 12 4 28 5 29 6 8 7 7 8 5 9 6 10 32 11 31 12
REMARK SMILES IDX 30 13 3 14 2 15 4 16 1 17 13 19 14 20 15 21 16 22 17 25
REMARK SMILES IDX 18 26 27 27 19 28 22 29 20 30 21 31 23 32 24 33 25 34 26 35
REMARK H PARENT 2 18 13 23 16 24
ROOT
ATOM      1  C   UNL     1     -40.064 160.832  -0.139  1.00  0.00    +0.127 A 
ATOM      2  C   UNL     1     -41.161 160.089   0.288  1.00  0.00    +0.049 A 
ATOM      3  C   UNL     1     -41.004 159.106   1.271  1.00  0.00    +0.030 A 
ATOM      4  C   UNL     1     -39.753 158.876   1.850  1.00  0.00    +0.043 A 
ATOM      5  C   UNL     1     -38.659 159.644   1.425  1.00  0.00    +0.030 A 
ATOM      6  C   UNL     1     -38.813 160.624   0.441  1.00  0.00    +0.049 A 
ENDROOT
BRANCH   1   7
ATOM      7  O   UNL     1     -40.284 161.804  -1.086  1.00  0.00    -0.457 OA
BRANCH   7   8
ATOM      8  C   UNL     1     -39.531 161.734  -2.236  1.00  0.00    +0.131 A 
ATOM      9  C   UNL     1     -38.561 162.857  -4.085  1.00  0.00    +0.131 A 
ATOM     10  C   UNL     1     -39.290 162.923  -2.909  1.00  0.00    +0.081 A 
ATOM     11  N   UNL     1     -38.080 161.697  -4.622  1.00  0.00    -0.251 NA
ATOM     12  C   UNL     1     -38.361 160.562  -3.948  1.00  0.00    +0.116 A 
ATOM     13  C   UNL     1     -39.079 160.526  -2.765  1.00  0.00    +0.067 A 
BRANCH   9  14
ATOM     14  C   UNL     1     -38.253 164.114  -4.842  1.00  0.00    +0.269 C 
ATOM     15  N   UNL     1     -38.476 164.026  -6.200  1.00  0.00    -0.354 N 
ATOM     16  O   UNL     1     -37.829 165.115  -4.278  1.00  0.00    -0.268 OA
ATOM     17  C   UNL     1     -38.126 165.081  -7.110  1.00  0.00    +0.143 C 
ATOM     18  H   UNL     1     -38.732 163.105  -6.550  1.00  0.00    +0.163 HD
ENDBRANCH   9  14
ENDBRANCH   7   8
ENDBRANCH   1   7
BRANCH   4  19
ATOM     19  N   UNL     1     -39.508 157.902   2.841  1.00  0.00    -0.308 N 
ATOM     20  C   UNL     1     -38.307 157.265   3.124  1.00  0.00    +0.323 C 
ATOM     21  O   UNL     1     -37.271 157.403   2.488  1.00  0.00    -0.248 OA
ATOM     22  N   UNL     1     -38.450 156.450   4.239  1.00  0.00    -0.308 N 
ATOM     23  H   UNL     1     -40.324 157.535   3.304  1.00  0.00    +0.171 HD
ATOM     24  H   UNL     1     -39.272 156.615   4.800  1.00  0.00    +0.171 HD
BRANCH  22  25
ATOM     25  C   UNL     1     -37.496 155.563   4.778  1.00  0.00    +0.043 A 
ATOM     26  C   UNL     1     -37.577 154.175   4.681  1.00  0.00    +0.028 A 
ATOM     27  C   UNL     1     -36.415 156.126   5.471  1.00  0.00    +0.040 A 
ATOM     28  C   UNL     1     -36.590 153.367   5.254  1.00  0.00    +0.023 A 
ATOM     29  C   UNL     1     -35.411 155.324   6.055  1.00  0.00    +0.076 A 
ATOM     30  C   UNL     1     -35.512 153.935   5.935  1.00  0.00    +0.053 A 
ATOM     31 Cl   UNL     1     -34.339 152.867   6.612  1.00  0.00    -0.084 Cl
BRANCH  29  32
ATOM     32  C   UNL     1     -34.265 155.969   6.785  1.00  0.00    +0.417 C 
ATOM     33  F   UNL     1     -34.171 155.578   8.085  1.00  0.00    -0.166 F 
ATOM     34  F   UNL     1     -33.055 155.718   6.214  1.00  0.00    -0.166 F 
ATOM     35  F   UNL     1     -34.366 157.330   6.827  1.00  0.00    -0.166 F 
ENDBRANCH  29  32
ENDBRANCH  22  25
ENDBRANCH   4  19
TORSDOF 6
ENDMDL
MODEL 2
REMARK VINA RESULT:   -10.523      4.579      7.666
REMARK INTER + INTRA:         -14.493
REMARK INTER:                 -13.982
REMARK INTRA:                  -0.512
REMARK UNBOUND:                -0.279
REMARK SMILES CNC(=O)c1cc(Oc2ccc(NC(=O)Nc3ccc(Cl)c(C(F)(F)F)c3)cc2)ccn1
REMARK SMILES IDX 9 1 10 2 11 3 12 4 28 5 29 6 8 7 7 8 5 9 6 10 32 11 31 12
REMARK SMILES IDX 30 13 3 14 2 15 4 16 1 17 13 19 14 20 15 21 16 22 17 25
REMARK SMILES IDX 18 26 27 27 19 28 22 29 20 30 21 31 23 32 24 33 25 34 26 35
REMARK H PARENT 2 18 13 23 16 24
ROOT
ATOM      1  C   UNL     1     -37.101 162.536  -7.212  1.00  0.00    +0.127 A 
ATOM      2  C   UNL     1     -37.818 161.383  -6.903  1.00  0.00    +0.049 A 
ATOM      3  C   UNL     1     -38.494 161.283  -5.683  1.00  0.00    +0.030 A 
ATOM      4  C   UNL     1     -38.476 162.343  -4.773  1.00  0.00    +0.043 A 
ATOM      5  C   UNL     1     -37.765 163.507  -5.103  1.00  0.00    +0.030 A 
ATOM      6  C   UNL     1     -37.086 163.608  -6.321  1.00  0.00    +0.049 A 
ENDROOT
BRANCH   1   7
ATOM      7  O   UNL     1     -36.481 162.589  -8.438  1.00  0.00    -0.457 OA
BRANCH   7   8
ATOM      8  C   UNL     1     -37.202 163.137  -9.475  1.00  0.00    +0.131 A 
ATOM      9  C   UNL     1     -37.679 165.029 -10.823  1.00  0.00    +0.131 A 
ATOM     10  C   UNL     1     -36.935 164.459  -9.802  1.00  0.00    +0.081 A 
ATOM     11  N   UNL     1     -38.659 164.373 -11.511  1.00  0.00    -0.251 NA
ATOM     12  C   UNL     1     -38.902 163.097 -11.142  1.00  0.00    +0.116 A 
ATOM     13  C   UNL     1     -38.212 162.442 -10.138  1.00  0.00    +0.067 A 
BRANCH   9  14
ATOM     14  C   UNL     1     -37.418 166.448 -11.232  1.00  0.00    +0.269 C 
ATOM     15  N   UNL     1     -36.101 166.836 -11.114  1.00  0.00    -0.354 N 
ATOM     16  O   UNL     1     -38.321 167.180 -11.620  1.00  0.00    -0.268 OA
ATOM     17  C   UNL     1     -35.672 168.189 -11.340  1.00  0.00    +0.143 C 
ATOM     18  H   UNL     1     -35.474 166.161 -10.683  1.00  0.00    +0.163 HD
ENDBRANCH   9  14
ENDBRANCH   7   8
ENDBRANCH   1   7
BRANCH   4  19
ATOM     19  N   UNL     1     -39.125 162.321  -3.520  1.00  0.00    -0.308 N 
ATOM     20  C   UNL     1     -39.354 161.220  -2.705  1.00  0.00    +0.323 C 
ATOM     21  O   UNL     1     -39.087 160.062  -2.994  1.00  0.00    -0.248 OA
ATOM     22  N   UNL     1     -39.929 161.625  -1.507  1.00  0.00    -0.308 N 
ATOM     23  H   UNL     1     -39.587 163.175  -3.253  1.00  0.00    +0.171 HD
ATOM     24  H   UNL     1     -39.870 162.612  -1.304  1.00  0.00    +0.171 HD
BRANCH  22  25
ATOM     25  C   UNL     1     -40.405 160.803  -0.465  1.00  0.00    +0.043 A 
ATOM     26  C   UNL     1     -41.749 160.674  -0.125  1.00  0.00    +0.028 A 
ATOM     27  C   UNL     1     -39.452 160.092   0.278  1.00  0.00    +0.040 A 
ATOM     28  C   UNL     1     -42.136 159.842   0.931  1.00  0.00    +0.023 A 
ATOM     29  C   UNL     1     -39.826 159.249   1.346  1.00  0.00    +0.076 A 
ATOM     30  C   UNL     1     -41.182 159.131   1.662  1.00  0.00    +0.053 A 
ATOM     31 Cl   UNL     1     -41.743 158.127   2.948  1.00  0.00    -0.084 Cl
BRANCH  29  32
ATOM     32  C   UNL     1     -38.772 158.500   2.116  1.00  0.00    +0.417 C 
ATOM     33  F   UNL     1     -37.543 158.558   1.535  1.00  0.00    -0.166 F 
ATOM     34  F   UNL     1     -38.622 158.945   3.393  1.00  0.00    -0.166 F 
ATOM     35  F   UNL     1     -39.051 157.168   2.231  1.00  0.00    -0.166 F 
ENDBRANCH  29  32
ENDBRANCH  22  25
ENDBRANCH   4  19
TORSDOF 6
ENDMDL
MODEL 3
REMARK VINA RESULT:   -10.523      1.444      1.909
REMARK INTER + INTRA:         -14.493
REMARK INTER:                 -14.558
REMARK INTRA:                   0.065
REMARK UNBOUND:                -0.279
REMARK SMILES CNC(=O)c1cc(Oc2ccc(NC(=O)Nc3ccc(Cl)c(C(F)(F)F)c3)cc2)ccn1
REMARK SMILES IDX 9 1 10 2 11 3 12 4 28 5 29 6 8 7 7 8 5 9 6 10 32 11 31 12
REMARK SMILES IDX 30 13 3 14 2 15 4 16 1 17 13 19 14 20 15 21 16 22 17 25
REMARK SMILES IDX 18 26 27 27 19 28 22 29 20 30 21 31 23 32 24 33 25 34 26 35
REMARK H PARENT 2 18 13 23 16 24
ROOT
ATOM      1  C   UNL     1     -39.630 159.974  -1.546  1.00  0.00    +0.127 A 
ATOM      2  C   UNL     1     -38.610 159.029  -1.501  1.00  0.00    +0.049 A 
ATOM      3  C   UNL     1     -38.440 158.233  -0.364  1.00  0.00    +0.030 A 
ATOM      4  C   UNL     1     -39.304 158.361   0.727  1.00  0.00    +0.043 A 
ATOM      5  C   UNL     1     -40.341 159.304   0.662  1.00  0.00    +0.030 A 
ATOM      6  C   UNL     1     -40.510 160.103  -0.472  1.00  0.00    +0.049 A 
ENDROOT
BRANCH   1   7
ATOM      7  O   UNL     1     -39.768 160.707  -2.702  1.00  0.00    -0.457 OA
BRANCH   7   8
ATOM      8  C   UNL     1     -39.338 162.014  -2.663  1.00  0.00    +0.131 A 
ATOM      9  C   UNL     1     -38.635 163.943  -3.850  1.00  0.00    +0.131 A 
ATOM     10  C   UNL     1     -39.100 162.638  -3.880  1.00  0.00    +0.081 A 
ATOM     11  N   UNL     1     -38.391 164.640  -2.702  1.00  0.00    -0.251 NA
ATOM     12  C   UNL     1     -38.611 163.986  -1.542  1.00  0.00    +0.116 A 
ATOM     13  C   UNL     1     -39.076 162.684  -1.469  1.00  0.00    +0.067 A 
BRANCH   9  14
ATOM     14  C   UNL     1     -38.381 164.672  -5.135  1.00  0.00    +0.269 C 
ATOM     15  N   UNL     1     -38.412 163.870  -6.256  1.00  0.00    -0.354 N 
ATOM     16  O   UNL     1     -38.154 165.876  -5.156  1.00  0.00    -0.268 OA
ATOM     17  C   UNL     1     -38.073 164.357  -7.564  1.00  0.00    +0.143 C 
ATOM     18  H   UNL     1     -38.511 162.872  -6.086  1.00  0.00    +0.163 HD
ENDBRANCH   9  14
ENDBRANCH   7   8
ENDBRANCH   1   7
BRANCH   4  19
ATOM     19  N   UNL     1     -39.199 157.603   1.912  1.00  0.00    -0.308 N 
ATOM     20  C   UNL     1     -38.087 157.463   2.732  1.00  0.00    +0.323 C 
ATOM     21  O   UNL     1     -36.980 157.929   2.501  1.00  0.00    -0.248 OA
ATOM     22  N   UNL     1     -38.414 156.719   3.858  1.00  0.00    -0.308 N 
ATOM     23  H   UNL     1     -39.976 156.993   2.111  1.00  0.00    +0.171 HD
ATOM     24  H   UNL     1     -39.400 156.608   4.038  1.00  0.00    +0.171 HD
BRANCH  22  25
ATOM     25  C   UNL     1     -37.542 156.272   4.872  1.00  0.00    +0.043 A 
ATOM     26  C   UNL     1     -37.935 155.475   5.945  1.00  0.00    +0.028 A 
ATOM     27  C   UNL     1     -36.203 156.681   4.793  1.00  0.00    +0.040 A 
ATOM     28  C   UNL     1     -37.005 155.083   6.913  1.00  0.00    +0.023 A 
ATOM     29  C   UNL     1     -35.253 156.294   5.762  1.00  0.00    +0.076 A 
ATOM     30  C   UNL     1     -35.672 155.488   6.824  1.00  0.00    +0.053 A 
ATOM     31 Cl   UNL     1     -34.591 154.960   8.060  1.00  0.00    -0.084 Cl
BRANCH  29  32
ATOM     32  C   UNL     1     -33.825 156.750   5.638  1.00  0.00    +0.417 C 
ATOM     33  F   UNL     1     -33.412 157.509   6.689  1.00  0.00    -0.166 F 
ATOM     34  F   UNL     1     -32.940 155.722   5.528  1.00  0.00    -0.166 F 
ATOM     35  F   UNL     1     -33.614 157.525   4.532  1.00  0.00    -0.166 F 
ENDBRANCH  29  32
ENDBRANCH  22  25
ENDBRANCH   4  19
TORSDOF 6
ENDMDL
MODEL 4
REMARK VINA RESULT:   -10.510      1.974      2.573
REMARK INTER + INTRA:         -14.476
REMARK INTER:                 -14.398
REMARK INTRA:                  -0.078
REMARK UNBOUND:                -0.279
REMARK SMILES CNC(=O)c1cc(Oc2ccc(NC(=O)Nc3ccc(Cl)c(C(F)(F)F)c3)cc2)ccn1
REMARK SMILES IDX 9 1 10 2 11 3 12 4 28 5 29 6 8 7 7 8 5 9 6 10 32 11 31 12
REMARK SMILES IDX 30 13 3 14 2 15 4 16 1 17 13 19 14 20 15 21 16 22 17 25
REMARK SMILES IDX 18 26 27 27 19 28 22 29 20 30 21 31 23 32 24 33 25 34 26 35
REMARK H PARENT 2 18 13 23 16 24
ROOT
ATOM      1  C   UNL     1     -40.156 160.454   0.356  1.00  0.00    +0.127 A 
ATOM      2  C   UNL     1     -38.815 160.185   0.615  1.00  0.00    +0.049 A 
ATOM      3  C   UNL     1     -38.465 159.202   1.546  1.00  0.00    +0.030 A 
ATOM      4  C   UNL     1     -39.452 158.466   2.207  1.00  0.00    +0.043 A 
ATOM      5  C   UNL     1     -40.799 158.733   1.922  1.00  0.00    +0.030 A 
ATOM      6  C   UNL     1     -41.152 159.717   0.995  1.00  0.00    +0.049 A 
ENDROOT
BRANCH   1   7
ATOM      7  O   UNL     1     -40.441 161.410  -0.591  1.00  0.00    -0.457 OA
BRANCH   7   8
ATOM      8  C   UNL     1     -39.729 161.352  -1.767  1.00  0.00    +0.131 A 
ATOM      9  C   UNL     1     -38.758 162.503  -3.598  1.00  0.00    +0.131 A 
ATOM     10  C   UNL     1     -39.444 162.556  -2.396  1.00  0.00    +0.081 A 
ATOM     11  N   UNL     1     -38.358 161.345  -4.199  1.00  0.00    -0.251 NA
ATOM     12  C   UNL     1     -38.680 160.197  -3.566  1.00  0.00    +0.116 A 
ATOM     13  C   UNL     1     -39.361 160.146  -2.363  1.00  0.00    +0.067 A 
BRANCH   9  14
ATOM     14  C   UNL     1     -38.405 163.775  -4.309  1.00  0.00    +0.269 C 
ATOM     15  N   UNL     1     -38.509 163.702  -5.682  1.00  0.00    -0.354 N 
ATOM     16  O   UNL     1     -38.045 164.774  -3.698  1.00  0.00    -0.268 OA
ATOM     17  C   UNL     1     -38.098 164.775  -6.546  1.00  0.00    +0.143 C 
ATOM     18  H   UNL     1     -38.721 162.784  -6.065  1.00  0.00    +0.163 HD
ENDBRANCH   9  14
ENDBRANCH   7   8
ENDBRANCH   1   7
BRANCH   4  19
ATOM     19  N   UNL     1     -39.183 157.463   3.162  1.00  0.00    -0.308 N 
ATOM     20  C   UNL     1     -37.949 156.925   3.501  1.00  0.00    +0.323 C 
ATOM     21  O   UNL     1     -36.889 157.195   2.954  1.00  0.00    -0.248 OA
ATOM     22  N   UNL     1     -38.090 156.037   4.560  1.00  0.00    -0.308 N 
ATOM     23  H   UNL     1     -39.991 156.995   3.543  1.00  0.00    +0.171 HD
ATOM     24  H   UNL     1     -38.961 156.092   5.065  1.00  0.00    +0.171 HD
BRANCH  22  25
ATOM     25  C   UNL     1     -37.094 155.213   5.123  1.00  0.00    +0.043 A 
ATOM     26  C   UNL     1     -35.894 155.686   5.649  1.00  0.00    +0.028 A 
ATOM     27  C   UNL     1     -37.332 153.831   5.130  1.00  0.00    +0.040 A 
ATOM     28  C   UNL     1     -34.955 154.798   6.182  1.00  0.00    +0.023 A 
ATOM     29  C   UNL     1     -36.394 152.921   5.663  1.00  0.00    +0.076 A 
ATOM     30  C   UNL     1     -35.202 153.424   6.191  1.00  0.00    +0.053 A 
ATOM     31 Cl   UNL     1     -33.991 152.397   6.867  1.00  0.00    -0.084 Cl
BRANCH  29  32
ATOM     32  C   UNL     1     -36.690 151.447   5.655  1.00  0.00    +0.417 C 
ATOM     33  F   UNL     1     -35.722 150.710   5.045  1.00  0.00    -0.166 F 
ATOM     34  F   UNL     1     -36.852 150.924   6.901  1.00  0.00    -0.166 F 
ATOM     35  F   UNL     1     -37.843 151.144   4.987  1.00  0.00    -0.166 F 
ENDBRANCH  29  32
ENDBRANCH  22  25
ENDBRANCH   4  19
TORSDOF 6
ENDMDL
MODEL 5
REMARK VINA RESULT:   -10.476      6.259     11.741
REMARK INTER + INTRA:         -14.430
REMARK INTER:                 -13.860
REMARK INTRA:                  -0.570
REMARK UNBOUND:                -0.279
REMARK SMILES CNC(=O)c1cc(Oc2ccc(NC(=O)Nc3ccc(Cl)c(C(F)(F)F)c3)cc2)ccn1
REMARK SMILES IDX 9 1 10 2 11 3 12 4 28 5 29 6 8 7 7 8 5 9 6 10 32 11 31 12
REMARK SMILES IDX 30 13 3 14 2 15 4 16 1 17 13 19 14 20 15 21 16 22 17 25
REMARK SMILES IDX 18 26 27 27 19 28 22 29 20 30 21 31 23 32 24 33 25 34 26 35
REMARK H PARENT 2 18 13 23 16 24
ROOT
ATOM      1  C   UNL     1     -39.008 158.033   2.724  1.00  0.00    +0.127 A 
ATOM      2  C   UNL     1     -40.195 158.719   2.482  1.00  0.00    +0.049 A 
ATOM      3  C   UNL     1     -40.436 159.282   1.224  1.00  0.00    +0.030 A 
ATOM      4  C   UNL     1     -39.502 159.145   0.194  1.00  0.00    +0.043 A 
ATOM      5  C   UNL     1     -38.318 158.435   0.445  1.00  0.00    +0.030 A 
ATOM      6  C   UNL     1     -38.074 157.874   1.701  1.00  0.00    +0.049 A 
ENDROOT
BRANCH   1   7
ATOM      7  O   UNL     1     -38.839 157.474   3.969  1.00  0.00    -0.457 OA
BRANCH   7   8
ATOM      8  C   UNL     1     -37.544 157.252   4.380  1.00  0.00    +0.131 A 
ATOM      9  C   UNL     1     -35.914 155.727   5.178  1.00  0.00    +0.131 A 
ATOM     10  C   UNL     1     -37.205 155.953   4.731  1.00  0.00    +0.081 A 
ATOM     11  N   UNL     1     -34.967 156.702   5.302  1.00  0.00    -0.251 NA
ATOM     12  C   UNL     1     -35.348 157.955   4.974  1.00  0.00    +0.116 A 
ATOM     13  C   UNL     1     -36.613 158.280   4.517  1.00  0.00    +0.067 A 
BRANCH   9  14
ATOM     14  C   UNL     1     -35.488 154.338   5.550  1.00  0.00    +0.269 C 
ATOM     15  N   UNL     1     -34.263 153.967   5.038  1.00  0.00    -0.354 N 
ATOM     16  O   UNL     1     -36.194 153.614   6.240  1.00  0.00    -0.268 OA
ATOM     17  C   UNL     1     -33.737 152.637   5.180  1.00  0.00    +0.143 C 
ATOM     18  H   UNL     1     -33.828 154.628   4.398  1.00  0.00    +0.163 HD
ENDBRANCH   9  14
ENDBRANCH   7   8
ENDBRANCH   1   7
BRANCH   4  19
ATOM     19  N   UNL     1     -39.665 159.687  -1.098  1.00  0.00    -0.308 N 
ATOM     20  C   UNL     1     -39.046 160.811  -1.629  1.00  0.00    +0.323 C 
ATOM     21  O   UNL     1     -38.303 161.563  -1.013  1.00  0.00    -0.248 OA
ATOM     22  N   UNL     1     -39.388 160.958  -2.967  1.00  0.00    -0.308 N 
ATOM     23  H   UNL     1     -40.411 159.291  -1.647  1.00  0.00    +0.171 HD
ATOM     24  H   UNL     1     -39.802 160.148  -3.404  1.00  0.00    +0.171 HD
BRANCH  22  25
ATOM     25  C   UNL     1     -39.051 162.024  -3.825  1.00  0.00    +0.043 A 
ATOM     26  C   UNL     1     -39.133 163.369  -3.468  1.00  0.00    +0.028 A 
ATOM     27  C   UNL     1     -38.627 161.698  -5.121  1.00  0.00    +0.040 A 
ATOM     28  C   UNL     1     -38.787 164.367  -4.385  1.00  0.00    +0.023 A 
ATOM     29  C   UNL     1     -38.275 162.693  -6.057  1.00  0.00    +0.076 A 
ATOM     30  C   UNL     1     -38.359 164.033  -5.671  1.00  0.00    +0.053 A 
ATOM     31 Cl   UNL     1     -37.951 165.325  -6.740  1.00  0.00    -0.084 Cl
BRANCH  29  32
ATOM     32  C   UNL     1     -37.820 162.299  -7.436  1.00  0.00    +0.417 C 
ATOM     33  F   UNL     1     -36.542 162.678  -7.707  1.00  0.00    -0.166 F 
ATOM     34  F   UNL     1     -37.886 160.958  -7.661  1.00  0.00    -0.166 F 
ATOM     35  F   UNL     1     -38.578 162.865  -8.422  1.00  0.00    -0.166 F 
ENDBRANCH  29  32
ENDBRANCH  22  25
ENDBRANCH   4  19
TORSDOF 6
ENDMDL
MODEL 6
REMARK VINA RESULT:   -10.401      2.066      2.815
REMARK INTER + INTRA:         -14.328
REMARK INTER:                 -14.230
REMARK INTRA:                  -0.097
REMARK UNBOUND:                -0.279
REMARK SMILES CNC(=O)c1cc(Oc2ccc(NC(=O)Nc3ccc(Cl)c(C(F)(F)F)c3)cc2)ccn1
REMARK SMILES IDX 9 1 10 2 11 3 12 4 28 5 29 6 8 7 7 8 5 9 6 10 32 11 31 12
REMARK SMILES IDX 30 13 3 14 2 15 4 16 1 17 13 19 14 20 15 21 16 22 17 25
REMARK SMILES IDX 18 26 27 27 19 28 22 29 20 30 21 31 23 32 24 33 25 34 26 35
REMARK H PARENT 2 18 13 23 16 24
ROOT
ATOM      1  C   UNL     1     -39.343 160.169  -2.372  1.00  0.00    +0.127 A 
ATOM      2  C   UNL     1     -38.609 159.000  -2.185  1.00  0.00    +0.049 A 
ATOM      3  C   UNL     1     -38.581 158.383  -0.931  1.00  0.00    +0.030 A 
ATOM      4  C   UNL     1     -39.303 158.917   0.139  1.00  0.00    +0.043 A 
ATOM      5  C   UNL     1     -40.054 160.084  -0.066  1.00  0.00    +0.030 A 
ATOM      6  C   UNL     1     -40.082 160.704  -1.318  1.00  0.00    +0.049 A 
ENDROOT
BRANCH   1   7
ATOM      7  O   UNL     1     -39.358 160.715  -3.634  1.00  0.00    -0.457 OA
BRANCH   7   8
ATOM      8  C   UNL     1     -39.058 162.054  -3.736  1.00  0.00    +0.131 A 
ATOM      9  C   UNL     1     -38.449 163.887  -5.111  1.00  0.00    +0.131 A 
ATOM     10  C   UNL     1     -38.785 162.547  -5.004  1.00  0.00    +0.081 A 
ATOM     11  N   UNL     1     -38.361 164.740  -4.049  1.00  0.00    -0.251 NA
ATOM     12  C   UNL     1     -38.609 164.211  -2.831  1.00  0.00    +0.116 A 
ATOM     13  C   UNL     1     -38.954 162.887  -2.623  1.00  0.00    +0.067 A 
BRANCH   9  14
ATOM     14  C   UNL     1     -38.164 164.477  -6.460  1.00  0.00    +0.269 C 
ATOM     15  N   UNL     1     -38.131 163.556  -7.484  1.00  0.00    -0.354 N 
ATOM     16  O   UNL     1     -37.969 165.678  -6.606  1.00  0.00    -0.268 OA
ATOM     17  C   UNL     1     -37.755 163.906  -8.826  1.00  0.00    +0.143 C 
ATOM     18  H   UNL     1     -38.210 162.580  -7.208  1.00  0.00    +0.163 HD
ENDBRANCH   9  14
ENDBRANCH   7   8
ENDBRANCH   1   7
BRANCH   4  19
ATOM     19  N   UNL     1     -39.323 158.360   1.436  1.00  0.00    -0.308 N 
ATOM     20  C   UNL     1     -38.235 157.984   2.212  1.00  0.00    +0.323 C 
ATOM     21  O   UNL     1     -37.068 158.010   1.848  1.00  0.00    -0.248 OA
ATOM     22  N   UNL     1     -38.664 157.577   3.469  1.00  0.00    -0.308 N 
ATOM     23  H   UNL     1     -40.229 158.085   1.779  1.00  0.00    +0.171 HD
ATOM     24  H   UNL     1     -39.608 157.832   3.714  1.00  0.00    +0.171 HD
BRANCH  22  25
ATOM     25  C   UNL     1     -37.880 157.026   4.504  1.00  0.00    +0.043 A 
ATOM     26  C   UNL     1     -37.117 157.780   5.392  1.00  0.00    +0.028 A 
ATOM     27  C   UNL     1     -37.861 155.629   4.620  1.00  0.00    +0.040 A 
ATOM     28  C   UNL     1     -36.359 157.153   6.385  1.00  0.00    +0.023 A 
ATOM     29  C   UNL     1     -37.101 154.980   5.617  1.00  0.00    +0.076 A 
ATOM     30  C   UNL     1     -36.351 155.761   6.500  1.00  0.00    +0.053 A 
ATOM     31 Cl   UNL     1     -35.389 155.067   7.753  1.00  0.00    -0.084 Cl
BRANCH  29  32
ATOM     32  C   UNL     1     -37.112 153.479   5.711  1.00  0.00    +0.417 C 
ATOM     33  F   UNL     1     -37.517 153.021   6.927  1.00  0.00    -0.166 F 
ATOM     34  F   UNL     1     -37.916 152.888   4.785  1.00  0.00    -0.166 F 
ATOM     35  F   UNL     1     -35.877 152.929   5.516  1.00  0.00    -0.166 F 
ENDBRANCH  29  32
ENDBRANCH  22  25
ENDBRANCH   4  19
TORSDOF 6
ENDMDL
MODEL 7
REMARK VINA RESULT:   -10.149      7.326     12.758
REMARK INTER + INTRA:         -13.987
REMARK INTER:                 -13.430
REMARK INTRA:                  -0.557
REMARK UNBOUND:                -0.279
REMARK SMILES CNC(=O)c1cc(Oc2ccc(NC(=O)Nc3ccc(Cl)c(C(F)(F)F)c3)cc2)ccn1
REMARK SMILES IDX 9 1 10 2 11 3 12 4 28 5 29 6 8 7 7 8 5 9 6 10 32 11 31 12
REMARK SMILES IDX 30 13 3 14 2 15 4 16 1 17 13 19 14 20 15 21 16 22 17 25
REMARK SMILES IDX 18 26 27 27 19 28 22 29 20 30 21 31 23 32 24 33 25 34 26 35
REMARK H PARENT 2 18 13 23 16 24
ROOT
ATOM      1  C   UNL     1     -38.959 161.308  -0.925  1.00  0.00    +0.127 A 
ATOM      2  C   UNL     1     -38.418 160.169  -1.514  1.00  0.00    +0.049 A 
ATOM      3  C   UNL     1     -38.361 160.059  -2.907  1.00  0.00    +0.030 A 
ATOM      4  C   UNL     1     -38.825 161.096  -3.720  1.00  0.00    +0.043 A 
ATOM      5  C   UNL     1     -39.351 162.247  -3.115  1.00  0.00    +0.030 A 
ATOM      6  C   UNL     1     -39.411 162.358  -1.723  1.00  0.00    +0.049 A 
ENDROOT
BRANCH   1   7
ATOM      7  O   UNL     1     -38.961 161.374   0.448  1.00  0.00    -0.457 OA
BRANCH   7   8
ATOM      8  C   UNL     1     -39.427 160.269   1.123  1.00  0.00    +0.131 A 
ATOM      9  C   UNL     1     -38.947 158.360   2.446  1.00  0.00    +0.131 A 
ATOM     10  C   UNL     1     -38.490 159.493   1.792  1.00  0.00    +0.081 A 
ATOM     11  N   UNL     1     -40.252 157.961   2.461  1.00  0.00    -0.251 NA
ATOM     12  C   UNL     1     -41.125 158.731   1.775  1.00  0.00    +0.116 A 
ATOM     13  C   UNL     1     -40.766 159.880   1.094  1.00  0.00    +0.067 A 
BRANCH   9  14
ATOM     14  C   UNL     1     -37.981 157.498   3.202  1.00  0.00    +0.269 C 
ATOM     15  N   UNL     1     -38.572 156.675   4.137  1.00  0.00    -0.354 N 
ATOM     16  O   UNL     1     -36.775 157.551   2.994  1.00  0.00    -0.268 OA
ATOM     17  C   UNL     1     -37.808 155.865   5.045  1.00  0.00    +0.143 C 
ATOM     18  H   UNL     1     -39.571 156.804   4.277  1.00  0.00    +0.163 HD
ENDBRANCH   9  14
ENDBRANCH   7   8
ENDBRANCH   1   7
BRANCH   4  19
ATOM     19  N   UNL     1     -38.810 161.062  -5.131  1.00  0.00    -0.308 N 
ATOM     20  C   UNL     1     -38.046 161.842  -5.989  1.00  0.00    +0.323 C 
ATOM     21  O   UNL     1     -37.306 162.752  -5.642  1.00  0.00    -0.248 OA
ATOM     22  N   UNL     1     -38.239 161.435  -7.303  1.00  0.00    -0.308 N 
ATOM     23  H   UNL     1     -39.530 160.503  -5.562  1.00  0.00    +0.171 HD
ATOM     24  H   UNL     1     -38.676 160.534  -7.423  1.00  0.00    +0.171 HD
BRANCH  22  25
ATOM     25  C   UNL     1     -37.726 162.038  -8.469  1.00  0.00    +0.043 A 
ATOM     26  C   UNL     1     -37.081 161.343  -9.489  1.00  0.00    +0.028 A 
ATOM     27  C   UNL     1     -37.862 163.429  -8.586  1.00  0.00    +0.040 A 
ATOM     28  C   UNL     1     -36.592 162.021 -10.610  1.00  0.00    +0.023 A 
ATOM     29  C   UNL     1     -37.375 164.128  -9.711  1.00  0.00    +0.076 A 
ATOM     30  C   UNL     1     -36.739 163.405 -10.723  1.00  0.00    +0.053 A 
ATOM     31 Cl   UNL     1     -36.108 164.164 -12.138  1.00  0.00    -0.084 Cl
BRANCH  29  32
ATOM     32  C   UNL     1     -37.546 165.620  -9.799  1.00  0.00    +0.417 C 
ATOM     33  F   UNL     1     -38.231 166.144  -8.747  1.00  0.00    -0.166 F 
ATOM     34  F   UNL     1     -36.366 166.293  -9.870  1.00  0.00    -0.166 F 
ATOM     35  F   UNL     1     -38.246 166.005 -10.908  1.00  0.00    -0.166 F 
ENDBRANCH  29  32
ENDBRANCH  22  25
ENDBRANCH   4  19
TORSDOF 6
ENDMDL
MODEL 8
REMARK VINA RESULT:    -9.980      5.674     12.159
REMARK INTER + INTRA:         -13.760
REMARK INTER:                 -13.507
REMARK INTRA:                  -0.252
REMARK UNBOUND:                -0.279
REMARK SMILES CNC(=O)c1cc(Oc2ccc(NC(=O)Nc3ccc(Cl)c(C(F)(F)F)c3)cc2)ccn1
REMARK SMILES IDX 9 1 10 2 11 3 12 4 28 5 29 6 8 7 7 8 5 9 6 10 32 11 31 12
REMARK SMILES IDX 30 13 3 14 2 15 4 16 1 17 13 19 14 20 15 21 16 22 17 25
REMARK SMILES IDX 18 26 27 27 19 28 22 29 20 30 21 31 23 32 24 33 25 34 26 35
REMARK H PARENT 2 18 13 23 16 24
ROOT
ATOM      1  C   UNL     1     -35.595 153.498   6.380  1.00  0.00    +0.127 A 
ATOM      2  C   UNL     1     -35.086 154.681   5.850  1.00  0.00    +0.049 A 
ATOM      3  C   UNL     1     -35.851 155.435   4.955  1.00  0.00    +0.030 A 
ATOM      4  C   UNL     1     -37.139 155.023   4.601  1.00  0.00    +0.043 A 
ATOM      5  C   UNL     1     -37.648 153.841   5.157  1.00  0.00    +0.030 A 
ATOM      6  C   UNL     1     -36.884 153.084   6.049  1.00  0.00    +0.049 A 
ENDROOT
BRANCH   1   7
ATOM      7  O   UNL     1     -34.810 152.814   7.278  1.00  0.00    -0.457 OA
BRANCH   7   8
ATOM      8  C   UNL     1     -34.964 151.447   7.325  1.00  0.00    +0.131 A 
ATOM      9  C   UNL     1     -34.974 149.378   6.169  1.00  0.00    +0.131 A 
ATOM     10  C   UNL     1     -34.787 150.750   6.138  1.00  0.00    +0.081 A 
ATOM     11  N   UNL     1     -35.329 148.680   7.287  1.00  0.00    -0.251 NA
ATOM     12  C   UNL     1     -35.516 149.402   8.412  1.00  0.00    +0.116 A 
ATOM     13  C   UNL     1     -35.352 150.774   8.482  1.00  0.00    +0.067 A 
BRANCH   9  14
ATOM     14  C   UNL     1     -34.776 148.571   4.920  1.00  0.00    +0.269 C 
ATOM     15  N   UNL     1     -34.777 149.317   3.760  1.00  0.00    -0.354 N 
ATOM     16  O   UNL     1     -34.641 147.354   4.956  1.00  0.00    -0.268 OA
ATOM     17  C   UNL     1     -34.724 148.716   2.456  1.00  0.00    +0.143 C 
ATOM     18  H   UNL     1     -35.001 150.304   3.865  1.00  0.00    +0.163 HD
ENDBRANCH   9  14
ENDBRANCH   7   8
ENDBRANCH   1   7
BRANCH   4  19
ATOM     19  N   UNL     1     -37.972 155.721   3.702  1.00  0.00    -0.308 N 
ATOM     20  C   UNL     1     -37.703 156.919   3.053  1.00  0.00    +0.323 C 
ATOM     21  O   UNL     1     -36.705 157.605   3.228  1.00  0.00    -0.248 OA
ATOM     22  N   UNL     1     -38.731 157.226   2.170  1.00  0.00    -0.308 N 
ATOM     23  H   UNL     1     -38.917 155.379   3.627  1.00  0.00    +0.171 HD
ATOM     24  H   UNL     1     -39.359 156.469   1.950  1.00  0.00    +0.171 HD
BRANCH  22  25
ATOM     25  C   UNL     1     -38.880 158.402   1.407  1.00  0.00    +0.043 A 
ATOM     26  C   UNL     1     -39.217 159.643   1.942  1.00  0.00    +0.028 A 
ATOM     27  C   UNL     1     -38.695 158.296   0.021  1.00  0.00    +0.040 A 
ATOM     28  C   UNL     1     -39.355 160.759   1.111  1.00  0.00    +0.023 A 
ATOM     29  C   UNL     1     -38.830 159.412  -0.832  1.00  0.00    +0.076 A 
ATOM     30  C   UNL     1     -39.161 160.647  -0.268  1.00  0.00    +0.053 A 
ATOM     31 Cl   UNL     1     -39.349 162.072  -1.221  1.00  0.00    -0.084 Cl
BRANCH  29  32
ATOM     32  C   UNL     1     -38.618 159.256  -2.312  1.00  0.00    +0.417 C 
ATOM     33  F   UNL     1     -38.583 157.956  -2.714  1.00  0.00    -0.166 F 
ATOM     34  F   UNL     1     -39.575 159.869  -3.060  1.00  0.00    -0.166 F 
ATOM     35  F   UNL     1     -37.435 159.793  -2.735  1.00  0.00    -0.166 F 
ENDBRANCH  29  32
ENDBRANCH  22  25
ENDBRANCH   4  19
TORSDOF 6
ENDMDL
MODEL 9
REMARK VINA RESULT:    -9.818      5.570     11.718
REMARK INTER + INTRA:         -13.540
REMARK INTER:                 -12.797
REMARK INTRA:                  -0.743
REMARK UNBOUND:                -0.279
REMARK SMILES CNC(=O)c1cc(Oc2ccc(NC(=O)Nc3ccc(Cl)c(C(F)(F)F)c3)cc2)ccn1
REMARK SMILES IDX 9 1 10 2 11 3 12 4 28 5 29 6 8 7 7 8 5 9 6 10 32 11 31 12
REMARK SMILES IDX 30 13 3 14 2 15 4 16 1 17 13 19 14 20 15 21 16 22 17 25
REMARK SMILES IDX 18 26 27 27 19 28 22 29 20 30 21 31 23 32 24 33 25 34 26 35
REMARK H PARENT 2 18 13 23 16 24
ROOT
ATOM      1  C   UNL     1     -36.715 156.456   6.229  1.00  0.00    +0.127 A 
ATOM      2  C   UNL     1     -37.658 155.839   5.412  1.00  0.00    +0.049 A 
ATOM      3  C   UNL     1     -38.235 156.544   4.350  1.00  0.00    +0.030 A 
ATOM      4  C   UNL     1     -37.856 157.863   4.085  1.00  0.00    +0.043 A 
ATOM      5  C   UNL     1     -36.890 158.467   4.904  1.00  0.00    +0.030 A 
ATOM      6  C   UNL     1     -36.315 157.765   5.967  1.00  0.00    +0.049 A 
ENDROOT
BRANCH   1   7
ATOM      7  O   UNL     1     -36.159 155.704   7.238  1.00  0.00    -0.457 OA
BRANCH   7   8
ATOM      8  C   UNL     1     -35.270 154.723   6.865  1.00  0.00    +0.131 A 
ATOM      9  C   UNL     1     -34.822 152.414   6.563  1.00  0.00    +0.131 A 
ATOM     10  C   UNL     1     -35.721 153.411   6.905  1.00  0.00    +0.081 A 
ATOM     11  N   UNL     1     -33.526 152.645   6.202  1.00  0.00    -0.251 NA
ATOM     12  C   UNL     1     -33.122 153.934   6.202  1.00  0.00    +0.116 A 
ATOM     13  C   UNL     1     -33.946 154.998   6.526  1.00  0.00    +0.067 A 
BRANCH   9  14
ATOM     14  C   UNL     1     -35.262 150.981   6.569  1.00  0.00    +0.269 C 
ATOM     15  N   UNL     1     -34.261 150.081   6.273  1.00  0.00    -0.354 N 
ATOM     16  O   UNL     1     -36.422 150.667   6.806  1.00  0.00    -0.268 OA
ATOM     17  C   UNL     1     -34.509 148.675   6.109  1.00  0.00    +0.143 C 
ATOM     18  H   UNL     1     -33.368 150.483   5.996  1.00  0.00    +0.163 HD
ENDBRANCH   9  14
ENDBRANCH   7   8
ENDBRANCH   1   7
BRANCH   4  19
ATOM     19  N   UNL     1     -38.393 158.644   3.041  1.00  0.00    -0.308 N 
ATOM     20  C   UNL     1     -38.232 158.457   1.674  1.00  0.00    +0.323 C 
ATOM     21  O   UNL     1     -37.518 157.607   1.159  1.00  0.00    -0.248 OA
ATOM     22  N   UNL     1     -39.003 159.375   0.972  1.00  0.00    -0.308 N 
ATOM     23  H   UNL     1     -38.830 159.507   3.321  1.00  0.00    +0.171 HD
ATOM     24  H   UNL     1     -39.716 159.847   1.507  1.00  0.00    +0.171 HD
BRANCH  22  25
ATOM     25  C   UNL     1     -39.034 159.577  -0.423  1.00  0.00    +0.043 A 
ATOM     26  C   UNL     1     -39.039 158.547  -1.361  1.00  0.00    +0.028 A 
ATOM     27  C   UNL     1     -39.039 160.902  -0.880  1.00  0.00    +0.040 A 
ATOM     28  C   UNL     1     -39.061 158.836  -2.729  1.00  0.00    +0.023 A 
ATOM     29  C   UNL     1     -39.060 161.211  -2.256  1.00  0.00    +0.076 A 
ATOM     30  C   UNL     1     -39.073 160.159  -3.176  1.00  0.00    +0.053 A 
ATOM     31 Cl   UNL     1     -39.100 160.428  -4.880  1.00  0.00    -0.084 Cl
BRANCH  29  32
ATOM     32  C   UNL     1     -39.070 162.646  -2.704  1.00  0.00    +0.417 C 
ATOM     33  F   UNL     1     -40.173 162.974  -3.430  1.00  0.00    -0.166 F 
ATOM     34  F   UNL     1     -39.005 163.531  -1.673  1.00  0.00    -0.166 F 
ATOM     35  F   UNL     1     -38.008 162.955  -3.508  1.00  0.00    -0.166 F 
ENDBRANCH  29  32
ENDBRANCH  22  25
ENDBRANCH   4  19
TORSDOF 6
ENDMDL
MODEL 10
REMARK VINA RESULT:    -9.679      1.883      2.479
REMARK INTER + INTRA:         -13.353
REMARK INTER:                 -12.895
REMARK INTRA:                  -0.458
REMARK UNBOUND:                -0.279
REMARK SMILES CNC(=O)c1cc(Oc2ccc(NC(=O)Nc3ccc(Cl)c(C(F)(F)F)c3)cc2)ccn1
REMARK SMILES IDX 9 1 10 2 11 3 12 4 28 5 29 6 8 7 7 8 5 9 6 10 32 11 31 12
REMARK SMILES IDX 30 13 3 14 2 15 4 16 1 17 13 19 14 20 15 21 16 22 17 25
REMARK SMILES IDX 18 26 27 27 19 28 22 29 20 30 21 31 23 32 24 33 25 34 26 35
REMARK H PARENT 2 18 13 23 16 24
ROOT
ATOM      1  C   UNL     1     -39.371 160.963  -2.154  1.00  0.00    +0.127 A 
ATOM      2  C   UNL     1     -38.742 159.721  -2.148  1.00  0.00    +0.049 A 
ATOM      3  C   UNL     1     -38.206 159.212  -0.961  1.00  0.00    +0.030 A 
ATOM      4  C   UNL     1     -38.316 159.931   0.233  1.00  0.00    +0.043 A 
ATOM      5  C   UNL     1     -38.969 161.172   0.217  1.00  0.00    +0.030 A 
ATOM      6  C   UNL     1     -39.503 161.684  -0.969  1.00  0.00    +0.049 A 
ENDROOT
BRANCH   1   7
ATOM      7  O   UNL     1     -39.905 161.398  -3.344  1.00  0.00    -0.457 OA
BRANCH   7   8
ATOM      8  C   UNL     1     -39.155 162.294  -4.072  1.00  0.00    +0.131 A 
ATOM      9  C   UNL     1     -37.755 162.706  -5.941  1.00  0.00    +0.131 A 
ATOM     10  C   UNL     1     -38.540 161.819  -5.221  1.00  0.00    +0.081 A 
ATOM     11  N   UNL     1     -37.546 164.006  -5.581  1.00  0.00    -0.251 NA
ATOM     12  C   UNL     1     -38.143 164.418  -4.442  1.00  0.00    +0.116 A 
ATOM     13  C   UNL     1     -38.945 163.609  -3.657  1.00  0.00    +0.067 A 
BRANCH   9  14
ATOM     14  C   UNL     1     -37.084 162.251  -7.202  1.00  0.00    +0.269 C 
ATOM     15  N   UNL     1     -37.812 162.491  -8.348  1.00  0.00    -0.354 N 
ATOM     16  O   UNL     1     -35.988 161.703  -7.184  1.00  0.00    -0.268 OA
ATOM     17  C   UNL     1     -37.396 162.020  -9.640  1.00  0.00    +0.143 C 
ATOM     18  H   UNL     1     -38.750 162.860  -8.210  1.00  0.00    +0.163 HD
ENDBRANCH   9  14
ENDBRANCH   7   8
ENDBRANCH   1   7
BRANCH   4  19
ATOM     19  N   UNL     1     -37.798 159.493   1.470  1.00  0.00    -0.308 N 
ATOM     20  C   UNL     1     -37.815 158.204   1.986  1.00  0.00    +0.323 C 
ATOM     21  O   UNL     1     -38.364 157.244   1.464  1.00  0.00    -0.248 OA
ATOM     22  N   UNL     1     -37.113 158.160   3.184  1.00  0.00    -0.308 N 
ATOM     23  H   UNL     1     -37.503 160.220   2.102  1.00  0.00    +0.171 HD
ATOM     24  H   UNL     1     -36.517 158.951   3.371  1.00  0.00    +0.171 HD
BRANCH  22  25
ATOM     25  C   UNL     1     -36.989 157.065   4.063  1.00  0.00    +0.043 A 
ATOM     26  C   UNL     1     -38.024 156.180   4.358  1.00  0.00    +0.028 A 
ATOM     27  C   UNL     1     -35.748 156.880   4.688  1.00  0.00    +0.040 A 
ATOM     28  C   UNL     1     -37.819 155.123   5.251  1.00  0.00    +0.023 A 
ATOM     29  C   UNL     1     -35.525 155.819   5.591  1.00  0.00    +0.076 A 
ATOM     30  C   UNL     1     -36.577 154.941   5.863  1.00  0.00    +0.053 A 
ATOM     31 Cl   UNL     1     -36.408 153.612   6.951  1.00  0.00    -0.084 Cl
BRANCH  29  32
ATOM     32  C   UNL     1     -34.176 155.653   6.237  1.00  0.00    +0.417 C 
ATOM     33  F   UNL     1     -34.227 155.678   7.596  1.00  0.00    -0.166 F 
ATOM     34  F   UNL     1     -33.554 154.494   5.890  1.00  0.00    -0.166 F 
ATOM     35  F   UNL     1     -33.302 156.646   5.893  1.00  0.00    -0.166 F 
ENDBRANCH  29  32
ENDBRANCH  22  25
ENDBRANCH   4  19
TORSDOF 6
ENDMDL
