MODEL 1
REMARK VINA RESULT:    -7.180      0.000      0.000
REMARK INTER + INTRA:          -7.891
REMARK INTER:                  -7.600
REMARK INTRA:                  -0.292
REMARK UNBOUND:                -0.292
REMARK SMILES Cc1ccc(=O)n(-c2ccccc2)c1
REMARK SMILES IDX 1 1 2 2 3 3 4 4 5 5 6 6 7 7 14 8 8 9 9 10 13 11 10 12 12 13
REMARK SMILES IDX 11 14
REMARK H PARENT
ROOT
ATOM      1  C   UNL     1     -13.747   4.127 -13.580  1.00  0.00    +0.046 C 
ATOM      2  C   UNL     1     -12.412   4.073 -14.260  1.00  0.00    -0.034 C 
ATOM      3  C   UNL     1     -11.502   3.032 -13.858  1.00  0.00    +0.010 C 
ATOM      4  C   UNL     1     -10.307   2.917 -14.443  1.00  0.00    +0.072 C 
ATOM      5  C   UNL     1      -9.875   3.867 -15.507  1.00  0.00    +0.255 C 
ATOM      6  O   UNL     1      -8.735   3.712 -15.944  1.00  0.00    -0.269 OA
ATOM      7  N   UNL     1     -10.805   4.868 -15.873  1.00  0.00    -0.284 N 
ATOM      8  C   UNL     1     -12.044   4.929 -15.225  1.00  0.00    +0.098 C 
ENDROOT
BRANCH   7   9
ATOM      9  C   UNL     1     -10.465   5.829 -16.902  1.00  0.00    +0.049 A 
ATOM     10  C   UNL     1     -10.724   5.560 -18.259  1.00  0.00    +0.027 A 
ATOM     11  C   UNL     1      -9.847   7.053 -16.601  1.00  0.00    +0.027 A 
ATOM     12  C   UNL     1     -10.386   6.473 -19.265  1.00  0.00    +0.002 A 
ATOM     13  C   UNL     1      -9.506   7.967 -17.604  1.00  0.00    +0.002 A 
ATOM     14  C   UNL     1      -9.775   7.677 -18.936  1.00  0.00    +0.000 A 
ENDBRANCH   7   9
TORSDOF 1
ENDMDL
MODEL 2
REMARK VINA RESULT:    -7.148      1.410      1.999
REMARK INTER + INTRA:          -7.858
REMARK INTER:                  -7.601
REMARK INTRA:                  -0.257
REMARK UNBOUND:                -0.292
REMARK SMILES Cc1ccc(=O)n(-c2ccccc2)c1
REMARK SMILES IDX 1 1 2 2 3 3 4 4 5 5 6 6 7 7 14 8 8 9 9 10 13 11 10 12 12 13
REMARK SMILES IDX 11 14
REMARK H PARENT
ROOT
ATOM      1  C   UNL     1     -11.924   4.467 -14.404  1.00  0.00    +0.046 C 
ATOM      2  C   UNL     1     -10.853   4.519 -15.452  1.00  0.00    -0.034 C 
ATOM      3  C   UNL     1      -9.835   3.501 -15.414  1.00  0.00    +0.010 C 
ATOM      4  C   UNL     1      -8.868   3.480 -16.334  1.00  0.00    +0.072 C 
ATOM      5  C   UNL     1      -8.802   4.511 -17.409  1.00  0.00    +0.255 C 
ATOM      6  O   UNL     1      -7.841   4.437 -18.175  1.00  0.00    -0.269 OA
ATOM      7  N   UNL     1      -9.827   5.485 -17.409  1.00  0.00    -0.284 N 
ATOM      8  C   UNL     1     -10.816   5.448 -16.420  1.00  0.00    +0.098 C 
ENDROOT
BRANCH   7   9
ATOM      9  C   UNL     1      -9.838   6.521 -18.422  1.00  0.00    +0.049 A 
ATOM     10  C   UNL     1     -10.273   6.248 -19.733  1.00  0.00    +0.027 A 
ATOM     11  C   UNL     1      -9.402   7.828 -18.154  1.00  0.00    +0.027 A 
ATOM     12  C   UNL     1     -10.275   7.236 -20.725  1.00  0.00    +0.002 A 
ATOM     13  C   UNL     1      -9.400   8.817 -19.144  1.00  0.00    +0.002 A 
ATOM     14  C   UNL     1      -9.836   8.521 -20.430  1.00  0.00    +0.000 A 
ENDBRANCH   7   9
TORSDOF 1
ENDMDL
MODEL 3
REMARK VINA RESULT:    -7.076      1.872      5.532
REMARK INTER + INTRA:          -7.782
REMARK INTER:                  -7.578
REMARK INTRA:                  -0.203
REMARK UNBOUND:                -0.292
REMARK SMILES Cc1ccc(=O)n(-c2ccccc2)c1
REMARK SMILES IDX 1 1 2 2 3 3 4 4 5 5 6 6 7 7 14 8 8 9 9 10 13 11 10 12 12 13
REMARK SMILES IDX 11 14
REMARK H PARENT
ROOT
ATOM      1  C   UNL     1     -10.300   7.023 -21.777  1.00  0.00    +0.046 C 
ATOM      2  C   UNL     1     -10.059   7.289 -20.321  1.00  0.00    -0.034 C 
ATOM      3  C   UNL     1      -9.637   8.615 -19.948  1.00  0.00    +0.010 C 
ATOM      4  C   UNL     1      -9.430   8.921 -18.665  1.00  0.00    +0.072 C 
ATOM      5  C   UNL     1      -9.609   7.903 -17.590  1.00  0.00    +0.255 C 
ATOM      6  O   UNL     1      -9.339   8.268 -16.446  1.00  0.00    -0.269 OA
ATOM      7  N   UNL     1     -10.030   6.618 -18.005  1.00  0.00    -0.284 N 
ATOM      8  C   UNL     1     -10.237   6.364 -19.366  1.00  0.00    +0.098 C 
ENDROOT
BRANCH   7   9
ATOM      9  C   UNL     1     -10.231   5.573 -17.022  1.00  0.00    +0.049 A 
ATOM     10  C   UNL     1     -11.295   5.637 -16.103  1.00  0.00    +0.027 A 
ATOM     11  C   UNL     1      -9.372   4.467 -16.928  1.00  0.00    +0.027 A 
ATOM     12  C   UNL     1     -11.491   4.641 -15.138  1.00  0.00    +0.002 A 
ATOM     13  C   UNL     1      -9.564   3.471 -15.964  1.00  0.00    +0.002 A 
ATOM     14  C   UNL     1     -10.623   3.558 -15.068  1.00  0.00    +0.000 A 
ENDBRANCH   7   9
TORSDOF 1
ENDMDL
MODEL 4
REMARK VINA RESULT:    -6.867      1.932      3.097
REMARK INTER + INTRA:          -7.561
REMARK INTER:                  -7.281
REMARK INTRA:                  -0.280
REMARK UNBOUND:                -0.292
REMARK SMILES Cc1ccc(=O)n(-c2ccccc2)c1
REMARK SMILES IDX 1 1 2 2 3 3 4 4 5 5 6 6 7 7 14 8 8 9 9 10 13 11 10 12 12 13
REMARK SMILES IDX 11 14
REMARK H PARENT
ROOT
ATOM      1  C   UNL     1      -7.519   2.729 -16.250  1.00  0.00    +0.046 C 
ATOM      2  C   UNL     1      -8.674   3.677 -16.375  1.00  0.00    -0.034 C 
ATOM      3  C   UNL     1      -9.762   3.526 -15.443  1.00  0.00    +0.010 C 
ATOM      4  C   UNL     1     -10.808   4.355 -15.488  1.00  0.00    +0.072 C 
ATOM      5  C   UNL     1     -10.891   5.439 -16.508  1.00  0.00    +0.255 C 
ATOM      6  O   UNL     1     -11.921   6.113 -16.502  1.00  0.00    -0.269 OA
ATOM      7  N   UNL     1      -9.796   5.552 -17.396  1.00  0.00    -0.284 N 
ATOM      8  C   UNL     1      -8.726   4.655 -17.291  1.00  0.00    +0.098 C 
ENDROOT
BRANCH   7   9
ATOM      9  C   UNL     1      -9.796   6.583 -18.414  1.00  0.00    +0.049 A 
ATOM     10  C   UNL     1     -10.161   6.290 -19.741  1.00  0.00    +0.027 A 
ATOM     11  C   UNL     1      -9.415   7.904 -18.132  1.00  0.00    +0.027 A 
ATOM     12  C   UNL     1     -10.151   7.274 -20.738  1.00  0.00    +0.002 A 
ATOM     13  C   UNL     1      -9.401   8.889 -19.127  1.00  0.00    +0.002 A 
ATOM     14  C   UNL     1      -9.768   8.574 -20.429  1.00  0.00    +0.000 A 
ENDBRANCH   7   9
TORSDOF 1
ENDMDL
MODEL 5
REMARK VINA RESULT:    -6.818      1.860      3.258
REMARK INTER + INTRA:          -7.508
REMARK INTER:                  -7.234
REMARK INTRA:                  -0.274
REMARK UNBOUND:                -0.292
REMARK SMILES Cc1ccc(=O)n(-c2ccccc2)c1
REMARK SMILES IDX 1 1 2 2 3 3 4 4 5 5 6 6 7 7 14 8 8 9 9 10 13 11 10 12 12 13
REMARK SMILES IDX 11 14
REMARK H PARENT
ROOT
ATOM      1  C   UNL     1      -7.491   2.516 -16.155  1.00  0.00    +0.046 C 
ATOM      2  C   UNL     1      -8.631   3.486 -16.239  1.00  0.00    -0.034 C 
ATOM      3  C   UNL     1      -9.692   3.353 -15.273  1.00  0.00    +0.010 C 
ATOM      4  C   UNL     1     -10.722   4.202 -15.283  1.00  0.00    +0.072 C 
ATOM      5  C   UNL     1     -10.816   5.292 -16.295  1.00  0.00    +0.255 C 
ATOM      6  O   UNL     1     -11.832   5.986 -16.255  1.00  0.00    -0.269 OA
ATOM      7  N   UNL     1      -9.748   5.387 -17.218  1.00  0.00    -0.284 N 
ATOM      8  C   UNL     1      -8.693   4.469 -17.150  1.00  0.00    +0.098 C 
ENDROOT
BRANCH   7   9
ATOM      9  C   UNL     1      -9.760   6.421 -18.233  1.00  0.00    +0.049 A 
ATOM     10  C   UNL     1      -9.358   7.736 -17.932  1.00  0.00    +0.027 A 
ATOM     11  C   UNL     1     -10.189   6.168 -19.546  1.00  0.00    +0.027 A 
ATOM     12  C   UNL     1      -9.380   8.748 -18.899  1.00  0.00    +0.002 A 
ATOM     13  C   UNL     1     -10.213   7.179 -20.514  1.00  0.00    +0.002 A 
ATOM     14  C   UNL     1      -9.810   8.468 -20.191  1.00  0.00    +0.000 A 
ENDBRANCH   7   9
TORSDOF 1
ENDMDL
MODEL 6
REMARK VINA RESULT:    -6.454      3.242      4.156
REMARK INTER + INTRA:          -7.123
REMARK INTER:                  -7.106
REMARK INTRA:                  -0.017
REMARK UNBOUND:                -0.292
REMARK SMILES Cc1ccc(=O)n(-c2ccccc2)c1
REMARK SMILES IDX 1 1 2 2 3 3 4 4 5 5 6 6 7 7 14 8 8 9 9 10 13 11 10 12 12 13
REMARK SMILES IDX 11 14
REMARK H PARENT
ROOT
ATOM      1  C   UNL     1     -13.669   1.772 -11.609  1.00  0.00    +0.046 C 
ATOM      2  C   UNL     1     -13.033   2.625 -12.666  1.00  0.00    -0.034 C 
ATOM      3  C   UNL     1     -13.837   3.666 -13.253  1.00  0.00    +0.010 C 
ATOM      4  C   UNL     1     -13.320   4.474 -14.182  1.00  0.00    +0.072 C 
ATOM      5  C   UNL     1     -11.914   4.312 -14.650  1.00  0.00    +0.255 C 
ATOM      6  O   UNL     1     -11.549   5.070 -15.549  1.00  0.00    -0.269 OA
ATOM      7  N   UNL     1     -11.163   3.281 -14.040  1.00  0.00    -0.284 N 
ATOM      8  C   UNL     1     -11.762   2.473 -13.067  1.00  0.00    +0.098 C 
ENDROOT
BRANCH   7   9
ATOM      9  C   UNL     1      -9.786   3.059 -14.435  1.00  0.00    +0.049 A 
ATOM     10  C   UNL     1      -9.442   2.868 -15.786  1.00  0.00    +0.027 A 
ATOM     11  C   UNL     1      -8.744   3.005 -13.496  1.00  0.00    +0.027 A 
ATOM     12  C   UNL     1      -8.118   2.639 -16.179  1.00  0.00    +0.002 A 
ATOM     13  C   UNL     1      -7.420   2.774 -13.886  1.00  0.00    +0.002 A 
ATOM     14  C   UNL     1      -7.107   2.589 -15.227  1.00  0.00    +0.000 A 
ENDBRANCH   7   9
TORSDOF 1
ENDMDL
MODEL 7
REMARK VINA RESULT:    -6.441      1.409      2.572
REMARK INTER + INTRA:          -7.109
REMARK INTER:                  -6.860
REMARK INTRA:                  -0.249
REMARK UNBOUND:                -0.292
REMARK SMILES Cc1ccc(=O)n(-c2ccccc2)c1
REMARK SMILES IDX 1 1 2 2 3 3 4 4 5 5 6 6 7 7 14 8 8 9 9 10 13 11 10 12 12 13
REMARK SMILES IDX 11 14
REMARK H PARENT
ROOT
ATOM      1  C   UNL     1      -9.506   2.422 -13.403  1.00  0.00    +0.046 C 
ATOM      2  C   UNL     1     -10.476   3.319 -14.112  1.00  0.00    -0.034 C 
ATOM      3  C   UNL     1     -11.845   3.304 -13.665  1.00  0.00    +0.010 C 
ATOM      4  C   UNL     1     -12.751   4.098 -14.240  1.00  0.00    +0.072 C 
ATOM      5  C   UNL     1     -12.382   5.003 -15.366  1.00  0.00    +0.255 C 
ATOM      6  O   UNL     1     -13.300   5.653 -15.865  1.00  0.00    -0.269 OA
ATOM      7  N   UNL     1     -11.024   4.988 -15.765  1.00  0.00    -0.284 N 
ATOM      8  C   UNL     1     -10.123   4.136 -15.115  1.00  0.00    +0.098 C 
ENDROOT
BRANCH   7   9
ATOM      9  C   UNL     1     -10.581   5.840 -16.849  1.00  0.00    +0.049 A 
ATOM     10  C   UNL     1      -9.884   7.035 -16.592  1.00  0.00    +0.027 A 
ATOM     11  C   UNL     1     -10.842   5.529 -18.193  1.00  0.00    +0.027 A 
ATOM     12  C   UNL     1      -9.463   7.876 -17.630  1.00  0.00    +0.002 A 
ATOM     13  C   UNL     1     -10.425   6.368 -19.232  1.00  0.00    +0.002 A 
ATOM     14  C   UNL     1      -9.736   7.542 -18.951  1.00  0.00    +0.000 A 
ENDBRANCH   7   9
TORSDOF 1
ENDMDL
MODEL 8
REMARK VINA RESULT:    -6.439      2.210      3.569
REMARK INTER + INTRA:          -7.107
REMARK INTER:                  -7.371
REMARK INTRA:                   0.264
REMARK UNBOUND:                -0.292
REMARK SMILES Cc1ccc(=O)n(-c2ccccc2)c1
REMARK SMILES IDX 1 1 2 2 3 3 4 4 5 5 6 6 7 7 14 8 8 9 9 10 13 11 10 12 12 13
REMARK SMILES IDX 11 14
REMARK H PARENT
ROOT
ATOM      1  C   UNL     1     -11.517   0.863 -11.276  1.00  0.00    +0.046 C 
ATOM      2  C   UNL     1     -12.098   1.868 -12.225  1.00  0.00    -0.034 C 
ATOM      3  C   UNL     1     -13.489   2.208 -12.065  1.00  0.00    +0.010 C 
ATOM      4  C   UNL     1     -14.057   3.115 -12.864  1.00  0.00    +0.072 C 
ATOM      5  C   UNL     1     -13.282   3.784 -13.947  1.00  0.00    +0.255 C 
ATOM      6  O   UNL     1     -13.910   4.562 -14.664  1.00  0.00    -0.269 OA
ATOM      7  N   UNL     1     -11.919   3.423 -14.060  1.00  0.00    -0.284 N 
ATOM      8  C   UNL     1     -11.382   2.470 -13.187  1.00  0.00    +0.098 C 
ENDROOT
BRANCH   7   9
ATOM      9  C   UNL     1     -11.094   4.030 -15.084  1.00  0.00    +0.049 A 
ATOM     10  C   UNL     1     -11.372   5.323 -15.567  1.00  0.00    +0.027 A 
ATOM     11  C   UNL     1     -10.001   3.357 -15.653  1.00  0.00    +0.027 A 
ATOM     12  C   UNL     1     -10.592   5.915 -16.567  1.00  0.00    +0.002 A 
ATOM     13  C   UNL     1      -9.221   3.946 -16.655  1.00  0.00    +0.002 A 
ATOM     14  C   UNL     1      -9.516   5.224 -17.113  1.00  0.00    +0.000 A 
ENDBRANCH   7   9
TORSDOF 1
ENDMDL
MODEL 9
REMARK VINA RESULT:    -6.402      1.159      4.952
REMARK INTER + INTRA:          -7.068
REMARK INTER:                  -7.269
REMARK INTRA:                   0.201
REMARK UNBOUND:                -0.292
REMARK SMILES Cc1ccc(=O)n(-c2ccccc2)c1
REMARK SMILES IDX 1 1 2 2 3 3 4 4 5 5 6 6 7 7 14 8 8 9 9 10 13 11 10 12 12 13
REMARK SMILES IDX 11 14
REMARK H PARENT
ROOT
ATOM      1  C   UNL     1      -9.638   7.605 -17.490  1.00  0.00    +0.046 C 
ATOM      2  C   UNL     1      -9.626   6.188 -17.001  1.00  0.00    -0.034 C 
ATOM      3  C   UNL     1      -8.592   5.319 -17.501  1.00  0.00    +0.010 C 
ATOM      4  C   UNL     1      -8.515   4.053 -17.084  1.00  0.00    +0.072 C 
ATOM      5  C   UNL     1      -9.499   3.499 -16.111  1.00  0.00    +0.255 C 
ATOM      6  O   UNL     1      -9.376   2.307 -15.833  1.00  0.00    -0.269 OA
ATOM      7  N   UNL     1     -10.492   4.392 -15.644  1.00  0.00    -0.284 N 
ATOM      8  C   UNL     1     -10.513   5.709 -16.115  1.00  0.00    +0.098 C 
ENDROOT
BRANCH   7   9
ATOM      9  C   UNL     1     -11.485   3.934 -14.693  1.00  0.00    +0.049 A 
ATOM     10  C   UNL     1     -12.779   4.487 -14.674  1.00  0.00    +0.027 A 
ATOM     11  C   UNL     1     -11.200   2.941 -13.742  1.00  0.00    +0.027 A 
ATOM     12  C   UNL     1     -13.743   4.063 -13.751  1.00  0.00    +0.002 A 
ATOM     13  C   UNL     1     -12.161   2.517 -12.817  1.00  0.00    +0.002 A 
ATOM     14  C   UNL     1     -13.431   3.079 -12.820  1.00  0.00    +0.000 A 
ENDBRANCH   7   9
TORSDOF 1
ENDMDL
MODEL 10
REMARK VINA RESULT:    -6.303      1.464      5.006
REMARK INTER + INTRA:          -6.963
REMARK INTER:                  -7.164
REMARK INTRA:                   0.201
REMARK UNBOUND:                -0.292
REMARK SMILES Cc1ccc(=O)n(-c2ccccc2)c1
REMARK SMILES IDX 1 1 2 2 3 3 4 4 5 5 6 6 7 7 14 8 8 9 9 10 13 11 10 12 12 13
REMARK SMILES IDX 11 14
REMARK H PARENT
ROOT
ATOM      1  C   UNL     1      -9.581   8.142 -18.694  1.00  0.00    +0.046 C 
ATOM      2  C   UNL     1      -9.242   6.751 -18.251  1.00  0.00    -0.034 C 
ATOM      3  C   UNL     1      -8.250   6.034 -19.010  1.00  0.00    +0.010 C 
ATOM      4  C   UNL     1      -7.887   4.800 -18.649  1.00  0.00    +0.072 C 
ATOM      5  C   UNL     1      -8.507   4.125 -17.473  1.00  0.00    +0.255 C 
ATOM      6  O   UNL     1      -8.146   2.969 -17.257  1.00  0.00    -0.269 OA
ATOM      7  N   UNL     1      -9.470   4.872 -16.756  1.00  0.00    -0.284 N 
ATOM      8  C   UNL     1      -9.800   6.164 -17.181  1.00  0.00    +0.098 C 
ENDROOT
BRANCH   7   9
ATOM      9  C   UNL     1     -10.117   4.291 -15.597  1.00  0.00    +0.049 A 
ATOM     10  C   UNL     1     -11.431   4.650 -15.244  1.00  0.00    +0.027 A 
ATOM     11  C   UNL     1      -9.463   3.367 -14.767  1.00  0.00    +0.027 A 
ATOM     12  C   UNL     1     -12.062   4.107 -14.118  1.00  0.00    +0.002 A 
ATOM     13  C   UNL     1     -10.090   2.824 -13.640  1.00  0.00    +0.002 A 
ATOM     14  C   UNL     1     -11.389   3.195 -13.314  1.00  0.00    +0.000 A 
ENDBRANCH   7   9
TORSDOF 1
ENDMDL
