MODEL 1
REMARK VINA RESULT:   -10.081      0.000      0.000
REMARK INTER + INTRA:         -17.524
REMARK INTER:                 -15.385
REMARK INTRA:                  -2.139
REMARK UNBOUND:                -2.139
REMARK SMILES COC(=O)c1ccc2c(c1)NC(=O)/C2=C(\Nc1ccc(N(C)C(=O)CN2CCN(C)CC2)cc1)c1ccccc1
REMARK SMILES IDX 17 1 18 2 19 3 20 4 33 5 34 6 16 7 15 9 5 10 6 11 10 12 7 13
REMARK SMILES IDX 9 14 8 15 11 16 14 17 12 18 13 19 3 21 4 22 2 23 1 24 35 25
REMARK SMILES IDX 36 26 40 27 37 28 39 29 38 30 21 31 22 32 23 33 24 34 25 35
REMARK SMILES IDX 26 36 27 37 32 38 28 39 31 40 29 41 30 42
REMARK H PARENT 16 8 11 20
ROOT
ATOM      1  C   UNL     1      -9.783   1.659 -13.476  1.00  0.00    +0.039 A 
ATOM      2  C   UNL     1      -8.748   0.733 -13.414  1.00  0.00    +0.028 A 
ATOM      3  C   UNL     1      -8.867  -0.457 -12.671  1.00  0.00    +0.028 A 
ATOM      4  C   UNL     1     -10.022  -0.764 -11.936  1.00  0.00    +0.043 A 
ATOM      5  C   UNL     1     -11.065   0.165 -12.011  1.00  0.00    +0.028 A 
ATOM      6  C   UNL     1     -10.944   1.349 -12.755  1.00  0.00    +0.028 A 
ENDROOT
BRANCH   1   7
ATOM      7  N   UNL     1      -9.742   2.891 -14.149  1.00  0.00    -0.354 N 
ATOM      8  H   UNL     1     -10.165   3.647 -13.598  1.00  0.00    +0.167 HD
BRANCH   7   9
ATOM      9  C   UNL     1      -9.304   3.319 -15.400  1.00  0.00    +0.059 C 
ATOM     10  C   UNL     1      -9.727   6.669 -19.615  1.00  0.00    +0.062 A 
ATOM     11  C   UNL     1      -8.658   5.768 -19.426  1.00  0.00    +0.016 A 
ATOM     12  C   UNL     1     -10.751   6.746 -18.662  1.00  0.00    +0.042 A 
ATOM     13  C   UNL     1      -8.603   4.933 -18.298  1.00  0.00    +0.012 A 
ATOM     14  C   UNL     1     -10.670   5.911 -17.564  1.00  0.00    +0.050 A 
ATOM     15  C   UNL     1      -9.626   4.996 -17.368  1.00  0.00    +0.013 A 
ATOM     16  N   UNL     1     -11.570   5.869 -16.506  1.00  0.00    -0.321 N 
ATOM     17  C   UNL     1      -9.916   4.315 -16.090  1.00  0.00    +0.073 C 
ATOM     18  C   UNL     1     -11.182   4.948 -15.554  1.00  0.00    +0.258 C 
ATOM     19  O   UNL     1     -11.743   4.704 -14.500  1.00  0.00    -0.269 OA
ATOM     20  H   UNL     1     -12.390   6.447 -16.404  1.00  0.00    +0.170 HD
BRANCH  10  21
ATOM     21  C   UNL     1      -9.812   7.567 -20.799  1.00  0.00    +0.337 C 
ATOM     22  O   UNL     1      -9.655   7.179 -21.945  1.00  0.00    -0.246 OA
BRANCH  21  23
ATOM     23  O   UNL     1     -10.082   8.840 -20.419  1.00  0.00    -0.465 OA
ATOM     24  C   UNL     1      -8.942   9.556 -19.940  1.00  0.00    +0.282 C 
ENDBRANCH  21  23
ENDBRANCH  10  21
BRANCH   9  25
ATOM     25  C   UNL     1      -8.079   2.723 -15.968  1.00  0.00    -0.001 A 
ATOM     26  C   UNL     1      -8.160   1.679 -16.903  1.00  0.00    +0.010 A 
ATOM     27  C   UNL     1      -6.818   3.202 -15.584  1.00  0.00    +0.010 A 
ATOM     28  C   UNL     1      -6.998   1.127 -17.446  1.00  0.00    +0.001 A 
ATOM     29  C   UNL     1      -5.658   2.647 -16.128  1.00  0.00    +0.001 A 
ATOM     30  C   UNL     1      -5.750   1.612 -17.060  1.00  0.00    +0.000 A 
ENDBRANCH   9  25
ENDBRANCH   7   9
ENDBRANCH   1   7
BRANCH   4  31
ATOM     31  N   UNL     1     -10.141  -2.002 -11.196  1.00  0.00    -0.314 N 
ATOM     32  C   UNL     1      -9.141  -2.263 -10.159  1.00  0.00    +0.153 C 
BRANCH  31  33
ATOM     33  C   UNL     1     -11.230  -2.883 -11.382  1.00  0.00    +0.240 C 
ATOM     34  O   UNL     1     -11.469  -3.455 -12.448  1.00  0.00    -0.273 OA
BRANCH  33  35
ATOM     35  C   UNL     1     -12.140  -3.090 -10.146  1.00  0.00    +0.185 C 
BRANCH  35  36
ATOM     36  N   UNL     1     -12.900  -1.907  -9.705  1.00  0.00    -0.292 NA
ATOM     37  C   UNL     1     -12.365  -1.260  -8.503  1.00  0.00    +0.100 C 
ATOM     38  C   UNL     1     -14.351  -2.139  -9.597  1.00  0.00    +0.100 C 
ATOM     39  C   UNL     1     -13.064   0.094  -8.199  1.00  0.00    +0.099 C 
ATOM     40  C   UNL     1     -15.083  -1.154  -8.646  1.00  0.00    +0.099 C 
ATOM     41  N   UNL     1     -14.496   0.197  -8.562  1.00  0.00    -0.304 NA
ATOM     42  C   UNL     1     -14.664   0.918  -9.824  1.00  0.00    +0.105 C 
ENDBRANCH  35  36
ENDBRANCH  33  35
ENDBRANCH  31  33
ENDBRANCH   4  31
TORSDOF 9
ENDMDL
MODEL 2
REMARK VINA RESULT:    -9.811      1.419      1.698
REMARK INTER + INTRA:         -17.113
REMARK INTER:                 -15.179
REMARK INTRA:                  -1.933
REMARK UNBOUND:                -2.139
REMARK SMILES COC(=O)c1ccc2c(c1)NC(=O)/C2=C(\Nc1ccc(N(C)C(=O)CN2CCN(C)CC2)cc1)c1ccccc1
REMARK SMILES IDX 17 1 18 2 19 3 20 4 33 5 34 6 16 7 15 9 5 10 6 11 10 12 7 13
REMARK SMILES IDX 9 14 8 15 11 16 14 17 12 18 13 19 3 21 4 22 2 23 1 24 35 25
REMARK SMILES IDX 36 26 40 27 37 28 39 29 38 30 21 31 22 32 23 33 24 34 25 35
REMARK SMILES IDX 26 36 27 37 32 38 28 39 31 40 29 41 30 42
REMARK H PARENT 16 8 11 20
ROOT
ATOM      1  C   UNL     1     -10.993   1.215 -12.533  1.00  0.00    +0.039 A 
ATOM      2  C   UNL     1     -10.337   0.035 -12.863  1.00  0.00    +0.028 A 
ATOM      3  C   UNL     1     -10.452  -1.120 -12.066  1.00  0.00    +0.028 A 
ATOM      4  C   UNL     1     -11.213  -1.139 -10.888  1.00  0.00    +0.043 A 
ATOM      5  C   UNL     1     -11.881   0.047 -10.566  1.00  0.00    +0.028 A 
ATOM      6  C   UNL     1     -11.765   1.196 -11.364  1.00  0.00    +0.028 A 
ENDROOT
BRANCH   1   7
ATOM      7  N   UNL     1     -10.902   2.427 -13.236  1.00  0.00    -0.354 N 
ATOM      8  H   UNL     1     -11.545   3.138 -12.867  1.00  0.00    +0.167 HD
BRANCH   7   9
ATOM      9  C   UNL     1     -10.181   2.878 -14.339  1.00  0.00    +0.059 C 
ATOM     10  C   UNL     1      -9.536   6.384 -18.396  1.00  0.00    +0.062 A 
ATOM     11  C   UNL     1      -8.568   5.431 -18.013  1.00  0.00    +0.016 A 
ATOM     12  C   UNL     1     -10.743   6.473 -17.693  1.00  0.00    +0.042 A 
ATOM     13  C   UNL     1      -8.795   4.557 -16.938  1.00  0.00    +0.012 A 
ATOM     14  C   UNL     1     -10.938   5.599 -16.640  1.00  0.00    +0.050 A 
ATOM     15  C   UNL     1      -9.997   4.633 -16.257  1.00  0.00    +0.013 A 
ATOM     16  N   UNL     1     -12.053   5.559 -15.812  1.00  0.00    -0.321 N 
ATOM     17  C   UNL     1     -10.589   3.922 -15.105  1.00  0.00    +0.073 C 
ATOM     18  C   UNL     1     -11.920   4.591 -14.837  1.00  0.00    +0.258 C 
ATOM     19  O   UNL     1     -12.710   4.336 -13.945  1.00  0.00    -0.269 OA
ATOM     20  H   UNL     1     -12.855   6.168 -15.870  1.00  0.00    +0.170 HD
BRANCH  10  21
ATOM     21  C   UNL     1      -9.322   7.323 -19.530  1.00  0.00    +0.337 C 
ATOM     22  O   UNL     1      -9.172   8.526 -19.384  1.00  0.00    -0.246 OA
BRANCH  21  23
ATOM     23  O   UNL     1      -9.322   6.659 -20.712  1.00  0.00    -0.465 OA
ATOM     24  C   UNL     1     -10.007   7.343 -21.763  1.00  0.00    +0.282 C 
ENDBRANCH  21  23
ENDBRANCH  10  21
BRANCH   9  25
ATOM     25  C   UNL     1      -8.882   2.250 -14.645  1.00  0.00    -0.001 A 
ATOM     26  C   UNL     1      -8.782   1.265 -15.641  1.00  0.00    +0.010 A 
ATOM     27  C   UNL     1      -7.728   2.638 -13.949  1.00  0.00    +0.010 A 
ATOM     28  C   UNL     1      -7.548   0.681 -15.935  1.00  0.00    +0.001 A 
ATOM     29  C   UNL     1      -6.496   2.053 -14.244  1.00  0.00    +0.001 A 
ATOM     30  C   UNL     1      -6.407   1.077 -15.238  1.00  0.00    +0.000 A 
ENDBRANCH   9  25
ENDBRANCH   7   9
ENDBRANCH   1   7
BRANCH   4  31
ATOM     31  N   UNL     1     -11.343  -2.341 -10.091  1.00  0.00    -0.314 N 
ATOM     32  C   UNL     1     -10.239  -2.670  -9.187  1.00  0.00    +0.153 C 
BRANCH  31  33
ATOM     33  C   UNL     1     -12.524  -3.117 -10.096  1.00  0.00    +0.240 C 
ATOM     34  O   UNL     1     -12.931  -3.730 -11.085  1.00  0.00    -0.273 OA
BRANCH  33  35
ATOM     35  C   UNL     1     -13.306  -3.151  -8.760  1.00  0.00    +0.185 C 
BRANCH  35  36
ATOM     36  N   UNL     1     -13.894  -1.868  -8.330  1.00  0.00    -0.292 NA
ATOM     37  C   UNL     1     -13.266  -1.288  -7.139  1.00  0.00    +0.100 C 
ATOM     38  C   UNL     1     -15.362  -1.898  -8.212  1.00  0.00    +0.100 C 
ATOM     39  C   UNL     1     -13.770   0.153  -6.847  1.00  0.00    +0.099 C 
ATOM     40  C   UNL     1     -15.945  -0.810  -7.269  1.00  0.00    +0.099 C 
ATOM     41  N   UNL     1     -15.177   0.448  -7.205  1.00  0.00    -0.304 NA
ATOM     42  C   UNL     1     -15.253   1.171  -8.475  1.00  0.00    +0.105 C 
ENDBRANCH  35  36
ENDBRANCH  33  35
ENDBRANCH  31  33
ENDBRANCH   4  31
TORSDOF 9
ENDMDL
MODEL 3
REMARK VINA RESULT:    -9.599      2.054      3.044
REMARK INTER + INTRA:         -16.788
REMARK INTER:                 -15.277
REMARK INTRA:                  -1.511
REMARK UNBOUND:                -2.139
REMARK SMILES COC(=O)c1ccc2c(c1)NC(=O)/C2=C(\Nc1ccc(N(C)C(=O)CN2CCN(C)CC2)cc1)c1ccccc1
REMARK SMILES IDX 17 1 18 2 19 3 20 4 33 5 34 6 16 7 15 9 5 10 6 11 10 12 7 13
REMARK SMILES IDX 9 14 8 15 11 16 14 17 12 18 13 19 3 21 4 22 2 23 1 24 35 25
REMARK SMILES IDX 36 26 40 27 37 28 39 29 38 30 21 31 22 32 23 33 24 34 25 35
REMARK SMILES IDX 26 36 27 37 32 38 28 39 31 40 29 41 30 42
REMARK H PARENT 16 8 11 20
ROOT
ATOM      1  C   UNL     1     -10.609   1.375 -12.822  1.00  0.00    +0.039 A 
ATOM      2  C   UNL     1      -9.890   0.219 -13.101  1.00  0.00    +0.028 A 
ATOM      3  C   UNL     1     -10.095  -0.971 -12.376  1.00  0.00    +0.028 A 
ATOM      4  C   UNL     1     -11.018  -1.049 -11.322  1.00  0.00    +0.043 A 
ATOM      5  C   UNL     1     -11.748   0.113 -11.052  1.00  0.00    +0.028 A 
ATOM      6  C   UNL     1     -11.541   1.296 -11.779  1.00  0.00    +0.028 A 
ENDROOT
BRANCH   1   7
ATOM      7  N   UNL     1     -10.441   2.617 -13.456  1.00  0.00    -0.354 N 
ATOM      8  H   UNL     1     -10.926   3.373 -12.959  1.00  0.00    +0.167 HD
BRANCH   7   9
ATOM      9  C   UNL     1      -9.812   3.057 -14.618  1.00  0.00    +0.059 C 
ATOM     10  C   UNL     1      -9.544   6.472 -18.793  1.00  0.00    +0.062 A 
ATOM     11  C   UNL     1      -8.528   5.552 -18.458  1.00  0.00    +0.016 A 
ATOM     12  C   UNL     1     -10.700   6.551 -18.007  1.00  0.00    +0.042 A 
ATOM     13  C   UNL     1      -8.656   4.701 -17.349  1.00  0.00    +0.012 A 
ATOM     14  C   UNL     1     -10.798   5.699 -16.923  1.00  0.00    +0.050 A 
ATOM     15  C   UNL     1      -9.809   4.766 -16.585  1.00  0.00    +0.013 A 
ATOM     16  N   UNL     1     -11.850   5.655 -16.016  1.00  0.00    -0.321 N 
ATOM     17  C   UNL     1     -10.299   4.071 -15.377  1.00  0.00    +0.073 C 
ATOM     18  C   UNL     1     -11.624   4.716 -15.030  1.00  0.00    +0.258 C 
ATOM     19  O   UNL     1     -12.342   4.465 -14.079  1.00  0.00    -0.269 OA
ATOM     20  H   UNL     1     -12.669   6.244 -16.031  1.00  0.00    +0.170 HD
BRANCH  10  21
ATOM     21  C   UNL     1      -9.436   7.387 -19.961  1.00  0.00    +0.337 C 
ATOM     22  O   UNL     1      -9.274   8.592 -19.855  1.00  0.00    -0.246 OA
BRANCH  21  23
ATOM     23  O   UNL     1      -9.541   6.698 -21.124  1.00  0.00    -0.465 OA
ATOM     24  C   UNL     1     -10.228   7.406 -22.158  1.00  0.00    +0.282 C 
ENDBRANCH  21  23
ENDBRANCH  10  21
BRANCH   9  25
ATOM     25  C   UNL     1      -8.522   2.451 -15.002  1.00  0.00    -0.001 A 
ATOM     26  C   UNL     1      -7.336   2.823 -14.349  1.00  0.00    +0.010 A 
ATOM     27  C   UNL     1      -8.469   1.487 -16.019  1.00  0.00    +0.010 A 
ATOM     28  C   UNL     1      -6.120   2.239 -14.707  1.00  0.00    +0.001 A 
ATOM     29  C   UNL     1      -7.252   0.905 -16.376  1.00  0.00    +0.001 A 
ATOM     30  C   UNL     1      -6.080   1.279 -15.719  1.00  0.00    +0.000 A 
ENDBRANCH   9  25
ENDBRANCH   7   9
ENDBRANCH   1   7
BRANCH   4  31
ATOM     31  N   UNL     1     -11.238  -2.285 -10.600  1.00  0.00    -0.314 N 
ATOM     32  C   UNL     1     -10.753  -2.353  -9.221  1.00  0.00    +0.153 C 
BRANCH  31  33
ATOM     33  C   UNL     1     -11.981  -3.352 -11.155  1.00  0.00    +0.240 C 
ATOM     34  O   UNL     1     -11.740  -3.848 -12.257  1.00  0.00    -0.273 OA
BRANCH  33  35
ATOM     35  C   UNL     1     -13.151  -3.874 -10.286  1.00  0.00    +0.185 C 
BRANCH  35  36
ATOM     36  N   UNL     1     -12.871  -5.088  -9.496  1.00  0.00    -0.292 NA
ATOM     37  C   UNL     1     -12.952  -6.336 -10.262  1.00  0.00    +0.100 C 
ATOM     38  C   UNL     1     -13.635  -5.169  -8.240  1.00  0.00    +0.100 C 
ATOM     39  C   UNL     1     -12.446  -7.561  -9.451  1.00  0.00    +0.099 C 
ATOM     40  C   UNL     1     -13.795  -6.611  -7.687  1.00  0.00    +0.099 C 
ATOM     41  N   UNL     1     -12.681  -7.531  -7.989  1.00  0.00    -0.304 NA
ATOM     42  C   UNL     1     -11.469  -7.135  -7.272  1.00  0.00    +0.105 C 
ENDBRANCH  35  36
ENDBRANCH  33  35
ENDBRANCH  31  33
ENDBRANCH   4  31
TORSDOF 9
ENDMDL
MODEL 4
REMARK VINA RESULT:    -9.561      1.637      2.084
REMARK INTER + INTRA:         -16.731
REMARK INTER:                 -14.798
REMARK INTRA:                  -1.933
REMARK UNBOUND:                -2.139
REMARK SMILES COC(=O)c1ccc2c(c1)NC(=O)/C2=C(\Nc1ccc(N(C)C(=O)CN2CCN(C)CC2)cc1)c1ccccc1
REMARK SMILES IDX 17 1 18 2 19 3 20 4 33 5 34 6 16 7 15 9 5 10 6 11 10 12 7 13
REMARK SMILES IDX 9 14 8 15 11 16 14 17 12 18 13 19 3 21 4 22 2 23 1 24 35 25
REMARK SMILES IDX 36 26 40 27 37 28 39 29 38 30 21 31 22 32 23 33 24 34 25 35
REMARK SMILES IDX 26 36 27 37 32 38 28 39 31 40 29 41 30 42
REMARK H PARENT 16 8 11 20
ROOT
ATOM      1  C   UNL     1     -10.988   1.156 -12.461  1.00  0.00    +0.039 A 
ATOM      2  C   UNL     1     -10.374  -0.041 -12.811  1.00  0.00    +0.028 A 
ATOM      3  C   UNL     1     -10.572  -1.218 -12.064  1.00  0.00    +0.028 A 
ATOM      4  C   UNL     1     -11.379  -1.244 -10.917  1.00  0.00    +0.043 A 
ATOM      5  C   UNL     1     -12.004  -0.041 -10.574  1.00  0.00    +0.028 A 
ATOM      6  C   UNL     1     -11.806   1.130 -11.323  1.00  0.00    +0.028 A 
ENDROOT
BRANCH   1   7
ATOM      7  N   UNL     1     -10.815   2.387 -13.113  1.00  0.00    -0.354 N 
ATOM      8  H   UNL     1     -11.358   3.138 -12.672  1.00  0.00    +0.167 HD
BRANCH   7   9
ATOM      9  C   UNL     1     -10.118   2.820 -14.240  1.00  0.00    +0.059 C 
ATOM     10  C   UNL     1      -9.554   6.266 -18.358  1.00  0.00    +0.062 A 
ATOM     11  C   UNL     1      -8.581   5.315 -17.985  1.00  0.00    +0.016 A 
ATOM     12  C   UNL     1     -10.744   6.370 -17.628  1.00  0.00    +0.042 A 
ATOM     13  C   UNL     1      -8.787   4.456 -16.893  1.00  0.00    +0.012 A 
ATOM     14  C   UNL     1     -10.918   5.512 -16.559  1.00  0.00    +0.050 A 
ATOM     15  C   UNL     1      -9.972   4.547 -16.185  1.00  0.00    +0.013 A 
ATOM     16  N   UNL     1     -12.013   5.489 -15.704  1.00  0.00    -0.321 N 
ATOM     17  C   UNL     1     -10.539   3.855 -15.009  1.00  0.00    +0.073 C 
ATOM     18  C   UNL     1     -11.861   4.534 -14.719  1.00  0.00    +0.258 C 
ATOM     19  O   UNL     1     -12.631   4.294 -13.806  1.00  0.00    -0.269 OA
ATOM     20  H   UNL     1     -12.814   6.101 -15.752  1.00  0.00    +0.170 HD
BRANCH  10  21
ATOM     21  C   UNL     1      -9.364   7.190 -19.510  1.00  0.00    +0.337 C 
ATOM     22  O   UNL     1      -9.172   8.388 -19.383  1.00  0.00    -0.246 OA
BRANCH  21  23
ATOM     23  O   UNL     1      -9.434   6.515 -20.684  1.00  0.00    -0.465 OA
ATOM     24  C   UNL     1      -9.937   7.293 -21.771  1.00  0.00    +0.282 C 
ENDBRANCH  21  23
ENDBRANCH  10  21
BRANCH   9  25
ATOM     25  C   UNL     1      -8.829   2.181 -14.568  1.00  0.00    -0.001 A 
ATOM     26  C   UNL     1      -8.759   1.176 -15.546  1.00  0.00    +0.010 A 
ATOM     27  C   UNL     1      -7.656   2.579 -13.910  1.00  0.00    +0.010 A 
ATOM     28  C   UNL     1      -7.535   0.583 -15.861  1.00  0.00    +0.001 A 
ATOM     29  C   UNL     1      -6.434   1.984 -14.227  1.00  0.00    +0.001 A 
ATOM     30  C   UNL     1      -6.374   0.989 -15.203  1.00  0.00    +0.000 A 
ENDBRANCH   9  25
ENDBRANCH   7   9
ENDBRANCH   1   7
BRANCH   4  31
ATOM     31  N   UNL     1     -11.594  -2.467 -10.171  1.00  0.00    -0.314 N 
ATOM     32  C   UNL     1     -12.763  -3.273 -10.526  1.00  0.00    +0.153 C 
BRANCH  31  33
ATOM     33  C   UNL     1     -10.666  -2.929  -9.211  1.00  0.00    +0.240 C 
ATOM     34  O   UNL     1      -9.559  -3.389  -9.501  1.00  0.00    -0.273 OA
BRANCH  33  35
ATOM     35  C   UNL     1     -11.128  -2.835  -7.736  1.00  0.00    +0.185 C 
BRANCH  35  36
ATOM     36  N   UNL     1     -11.966  -1.669  -7.401  1.00  0.00    -0.292 NA
ATOM     37  C   UNL     1     -11.236  -0.564  -6.772  1.00  0.00    +0.100 C 
ATOM     38  C   UNL     1     -13.187  -2.011  -6.652  1.00  0.00    +0.100 C 
ATOM     39  C   UNL     1     -12.106   0.715  -6.630  1.00  0.00    +0.099 C 
ATOM     40  C   UNL     1     -13.776  -0.834  -5.828  1.00  0.00    +0.099 C 
ATOM     41  N   UNL     1     -13.554   0.509  -6.396  1.00  0.00    -0.304 NA
ATOM     42  C   UNL     1     -14.314   0.684  -7.635  1.00  0.00    +0.105 C 
ENDBRANCH  35  36
ENDBRANCH  33  35
ENDBRANCH  31  33
ENDBRANCH   4  31
TORSDOF 9
ENDMDL
MODEL 5
REMARK VINA RESULT:    -9.388      2.856     10.141
REMARK INTER + INTRA:         -16.466
REMARK INTER:                 -14.191
REMARK INTRA:                  -2.276
REMARK UNBOUND:                -2.139
REMARK SMILES COC(=O)c1ccc2c(c1)NC(=O)/C2=C(\Nc1ccc(N(C)C(=O)CN2CCN(C)CC2)cc1)c1ccccc1
REMARK SMILES IDX 17 1 18 2 19 3 20 4 33 5 34 6 16 7 15 9 5 10 6 11 10 12 7 13
REMARK SMILES IDX 9 14 8 15 11 16 14 17 12 18 13 19 3 21 4 22 2 23 1 24 35 25
REMARK SMILES IDX 36 26 40 27 37 28 39 29 38 30 21 31 22 32 23 33 24 34 25 35
REMARK SMILES IDX 26 36 27 37 32 38 28 39 31 40 29 41 30 42
REMARK H PARENT 16 8 11 20
ROOT
ATOM      1  C   UNL     1      -8.943   0.887 -13.904  1.00  0.00    +0.039 A 
ATOM      2  C   UNL     1      -8.119   1.925 -13.486  1.00  0.00    +0.028 A 
ATOM      3  C   UNL     1      -7.090   2.427 -14.306  1.00  0.00    +0.028 A 
ATOM      4  C   UNL     1      -6.826   1.895 -15.577  1.00  0.00    +0.043 A 
ATOM      5  C   UNL     1      -7.664   0.858 -15.999  1.00  0.00    +0.028 A 
ATOM      6  C   UNL     1      -8.690   0.362 -15.179  1.00  0.00    +0.028 A 
ENDROOT
BRANCH   1   7
ATOM      7  N   UNL     1      -9.960   0.290 -13.142  1.00  0.00    -0.354 N 
ATOM      8  H   UNL     1      -9.796  -0.713 -12.996  1.00  0.00    +0.167 HD
BRANCH   7   9
ATOM      9  C   UNL     1     -11.157   0.725 -12.578  1.00  0.00    +0.059 C 
ATOM     10  C   UNL     1     -14.844   0.465  -8.640  1.00  0.00    +0.062 A 
ATOM     11  C   UNL     1     -14.827   1.458  -9.642  1.00  0.00    +0.016 A 
ATOM     12  C   UNL     1     -13.848  -0.520  -8.616  1.00  0.00    +0.042 A 
ATOM     13  C   UNL     1     -13.829   1.475 -10.631  1.00  0.00    +0.012 A 
ATOM     14  C   UNL     1     -12.880  -0.477  -9.602  1.00  0.00    +0.050 A 
ATOM     15  C   UNL     1     -12.858   0.489 -10.617  1.00  0.00    +0.013 A 
ATOM     16  N   UNL     1     -11.802  -1.346  -9.722  1.00  0.00    -0.321 N 
ATOM     17  C   UNL     1     -11.675   0.180 -11.448  1.00  0.00    +0.073 C 
ATOM     18  C   UNL     1     -11.004  -1.010 -10.797  1.00  0.00    +0.258 C 
ATOM     19  O   UNL     1      -9.972  -1.558 -11.142  1.00  0.00    -0.269 OA
ATOM     20  H   UNL     1     -11.587  -2.110  -9.100  1.00  0.00    +0.170 HD
BRANCH  10  21
ATOM     21  C   UNL     1     -15.887   0.422  -7.580  1.00  0.00    +0.337 C 
ATOM     22  O   UNL     1     -16.902   1.098  -7.611  1.00  0.00    -0.246 OA
BRANCH  21  23
ATOM     23  O   UNL     1     -15.546  -0.456  -6.604  1.00  0.00    -0.465 OA
ATOM     24  C   UNL     1     -16.660  -0.976  -5.876  1.00  0.00    +0.282 C 
ENDBRANCH  21  23
ENDBRANCH  10  21
BRANCH   9  25
ATOM     25  C   UNL     1     -11.853   1.877 -13.184  1.00  0.00    -0.001 A 
ATOM     26  C   UNL     1     -13.012   1.686 -13.952  1.00  0.00    +0.010 A 
ATOM     27  C   UNL     1     -11.366   3.177 -12.990  1.00  0.00    +0.010 A 
ATOM     28  C   UNL     1     -13.673   2.780 -14.514  1.00  0.00    +0.001 A 
ATOM     29  C   UNL     1     -12.028   4.269 -13.554  1.00  0.00    +0.001 A 
ATOM     30  C   UNL     1     -13.182   4.070 -14.313  1.00  0.00    +0.000 A 
ENDBRANCH   9  25
ENDBRANCH   7   9
ENDBRANCH   1   7
BRANCH   4  31
ATOM     31  N   UNL     1      -5.781   2.436 -16.421  1.00  0.00    -0.314 N 
ATOM     32  C   UNL     1      -4.651   1.561 -16.735  1.00  0.00    +0.153 C 
BRANCH  31  33
ATOM     33  C   UNL     1      -5.884   3.717 -17.009  1.00  0.00    +0.240 C 
ATOM     34  O   UNL     1      -5.149   4.662 -16.714  1.00  0.00    -0.273 OA
BRANCH  33  35
ATOM     35  C   UNL     1      -7.004   3.879 -18.065  1.00  0.00    +0.185 C 
BRANCH  35  36
ATOM     36  N   UNL     1      -8.081   4.824 -17.716  1.00  0.00    -0.292 NA
ATOM     37  C   UNL     1      -9.249   4.200 -17.086  1.00  0.00    +0.100 C 
ATOM     38  C   UNL     1      -8.471   5.715 -18.823  1.00  0.00    +0.100 C 
ATOM     39  C   UNL     1     -10.260   5.250 -16.546  1.00  0.00    +0.099 C 
ATOM     40  C   UNL     1      -9.903   6.301 -18.691  1.00  0.00    +0.099 C 
ATOM     41  N   UNL     1     -10.374   6.514 -17.309  1.00  0.00    -0.304 NA
ATOM     42  C   UNL     1      -9.617   7.586 -16.659  1.00  0.00    +0.105 C 
ENDBRANCH  35  36
ENDBRANCH  33  35
ENDBRANCH  31  33
ENDBRANCH   4  31
TORSDOF 9
ENDMDL
MODEL 6
REMARK VINA RESULT:    -9.192      4.199      7.659
REMARK INTER + INTRA:         -16.167
REMARK INTER:                 -14.132
REMARK INTRA:                  -2.035
REMARK UNBOUND:                -2.139
REMARK SMILES COC(=O)c1ccc2c(c1)NC(=O)/C2=C(\Nc1ccc(N(C)C(=O)CN2CCN(C)CC2)cc1)c1ccccc1
REMARK SMILES IDX 17 1 18 2 19 3 20 4 33 5 34 6 16 7 15 9 5 10 6 11 10 12 7 13
REMARK SMILES IDX 9 14 8 15 11 16 14 17 12 18 13 19 3 21 4 22 2 23 1 24 35 25
REMARK SMILES IDX 36 26 40 27 37 28 39 29 38 30 21 31 22 32 23 33 24 34 25 35
REMARK SMILES IDX 26 36 27 37 32 38 28 39 31 40 29 41 30 42
REMARK H PARENT 16 8 11 20
ROOT
ATOM      1  C   UNL     1      -6.464   0.179 -14.654  1.00  0.00    +0.039 A 
ATOM      2  C   UNL     1      -6.644  -0.570 -15.812  1.00  0.00    +0.028 A 
ATOM      3  C   UNL     1      -6.184  -1.897 -15.912  1.00  0.00    +0.028 A 
ATOM      4  C   UNL     1      -5.502  -2.528 -14.862  1.00  0.00    +0.043 A 
ATOM      5  C   UNL     1      -5.333  -1.777 -13.694  1.00  0.00    +0.028 A 
ATOM      6  C   UNL     1      -5.795  -0.454 -13.598  1.00  0.00    +0.028 A 
ENDROOT
BRANCH   1   7
ATOM      7  N   UNL     1      -6.843   1.519 -14.478  1.00  0.00    -0.354 N 
ATOM      8  H   UNL     1      -6.291   1.984 -13.747  1.00  0.00    +0.167 HD
BRANCH   7   9
ATOM      9  C   UNL     1      -7.817   2.351 -15.025  1.00  0.00    +0.059 C 
ATOM     10  C   UNL     1      -9.353   5.930 -18.766  1.00  0.00    +0.062 A 
ATOM     11  C   UNL     1     -10.235   5.314 -17.852  1.00  0.00    +0.016 A 
ATOM     12  C   UNL     1      -7.991   5.604 -18.749  1.00  0.00    +0.042 A 
ATOM     13  C   UNL     1      -9.770   4.380 -16.912  1.00  0.00    +0.012 A 
ATOM     14  C   UNL     1      -7.564   4.682 -17.812  1.00  0.00    +0.050 A 
ATOM     15  C   UNL     1      -8.420   4.074 -16.884  1.00  0.00    +0.013 A 
ATOM     16  N   UNL     1      -6.264   4.214 -17.667  1.00  0.00    -0.321 N 
ATOM     17  C   UNL     1      -7.575   3.167 -16.082  1.00  0.00    +0.073 C 
ATOM     18  C   UNL     1      -6.179   3.274 -16.659  1.00  0.00    +0.258 C 
ATOM     19  O   UNL     1      -5.186   2.659 -16.313  1.00  0.00    -0.269 OA
ATOM     20  H   UNL     1      -5.472   4.482 -18.231  1.00  0.00    +0.170 HD
BRANCH  10  21
ATOM     21  C   UNL     1      -9.816   6.922 -19.774  1.00  0.00    +0.337 C 
ATOM     22  O   UNL     1     -10.346   7.981 -19.476  1.00  0.00    -0.246 OA
BRANCH  21  23
ATOM     23  O   UNL     1      -9.567   6.483 -21.032  1.00  0.00    -0.465 OA
ATOM     24  C   UNL     1     -10.303   7.173 -22.044  1.00  0.00    +0.282 C 
ENDBRANCH  21  23
ENDBRANCH  10  21
BRANCH   9  25
ATOM     25  C   UNL     1      -9.191   2.288 -14.489  1.00  0.00    -0.001 A 
ATOM     26  C   UNL     1      -9.718   3.359 -13.749  1.00  0.00    +0.010 A 
ATOM     27  C   UNL     1      -9.988   1.158 -14.721  1.00  0.00    +0.010 A 
ATOM     28  C   UNL     1     -11.022   3.299 -13.254  1.00  0.00    +0.001 A 
ATOM     29  C   UNL     1     -11.291   1.101 -14.224  1.00  0.00    +0.001 A 
ATOM     30  C   UNL     1     -11.807   2.172 -13.493  1.00  0.00    +0.000 A 
ENDBRANCH   9  25
ENDBRANCH   7   9
ENDBRANCH   1   7
BRANCH   4  31
ATOM     31  N   UNL     1      -5.056  -3.902 -14.968  1.00  0.00    -0.314 N 
ATOM     32  C   UNL     1      -5.884  -4.928 -14.333  1.00  0.00    +0.153 C 
BRANCH  31  33
ATOM     33  C   UNL     1      -3.928  -4.264 -15.739  1.00  0.00    +0.240 C 
ATOM     34  O   UNL     1      -3.918  -5.210 -16.528  1.00  0.00    -0.273 OA
BRANCH  33  35
ATOM     35  C   UNL     1      -2.667  -3.391 -15.527  1.00  0.00    +0.185 C 
BRANCH  35  36
ATOM     36  N   UNL     1      -2.480  -2.291 -16.491  1.00  0.00    -0.292 NA
ATOM     37  C   UNL     1      -1.398  -2.512 -17.455  1.00  0.00    +0.100 C 
ATOM     38  C   UNL     1      -2.387  -0.961 -15.864  1.00  0.00    +0.100 C 
ATOM     39  C   UNL     1      -1.374  -1.435 -18.575  1.00  0.00    +0.099 C 
ATOM     40  C   UNL     1      -1.662   0.101 -16.734  1.00  0.00    +0.099 C 
ATOM     41  N   UNL     1      -1.805  -0.071 -18.192  1.00  0.00    -0.304 NA
ATOM     42  C   UNL     1      -3.183   0.180 -18.614  1.00  0.00    +0.105 C 
ENDBRANCH  35  36
ENDBRANCH  33  35
ENDBRANCH  31  33
ENDBRANCH   4  31
TORSDOF 9
ENDMDL
MODEL 7
REMARK VINA RESULT:    -9.044      2.328      3.846
REMARK INTER + INTRA:         -15.942
REMARK INTER:                 -14.739
REMARK INTRA:                  -1.203
REMARK UNBOUND:                -2.139
REMARK SMILES COC(=O)c1ccc2c(c1)NC(=O)/C2=C(\Nc1ccc(N(C)C(=O)CN2CCN(C)CC2)cc1)c1ccccc1
REMARK SMILES IDX 17 1 18 2 19 3 20 4 33 5 34 6 16 7 15 9 5 10 6 11 10 12 7 13
REMARK SMILES IDX 9 14 8 15 11 16 14 17 12 18 13 19 3 21 4 22 2 23 1 24 35 25
REMARK SMILES IDX 36 26 40 27 37 28 39 29 38 30 21 31 22 32 23 33 24 34 25 35
REMARK SMILES IDX 26 36 27 37 32 38 28 39 31 40 29 41 30 42
REMARK H PARENT 16 8 11 20
ROOT
ATOM      1  C   UNL     1     -12.924   1.857 -11.714  1.00  0.00    +0.039 A 
ATOM      2  C   UNL     1     -14.118   1.589 -11.055  1.00  0.00    +0.028 A 
ATOM      3  C   UNL     1     -14.198   0.616 -10.040  1.00  0.00    +0.028 A 
ATOM      4  C   UNL     1     -13.087  -0.149  -9.654  1.00  0.00    +0.043 A 
ATOM      5  C   UNL     1     -11.885   0.132 -10.311  1.00  0.00    +0.028 A 
ATOM      6  C   UNL     1     -11.810   1.105 -11.321  1.00  0.00    +0.028 A 
ENDROOT
BRANCH   1   7
ATOM      7  N   UNL     1     -12.757   2.771 -12.767  1.00  0.00    -0.354 N 
ATOM      8  H   UNL     1     -13.535   3.439 -12.827  1.00  0.00    +0.167 HD
BRANCH   7   9
ATOM      9  C   UNL     1     -11.811   2.958 -13.772  1.00  0.00    +0.059 C 
ATOM     10  C   UNL     1      -9.997   5.730 -18.037  1.00  0.00    +0.062 A 
ATOM     11  C   UNL     1      -9.263   4.719 -17.381  1.00  0.00    +0.016 A 
ATOM     12  C   UNL     1     -11.270   6.081 -17.572  1.00  0.00    +0.042 A 
ATOM     13  C   UNL     1      -9.790   4.046 -16.267  1.00  0.00    +0.012 A 
ATOM     14  C   UNL     1     -11.762   5.401 -16.474  1.00  0.00    +0.050 A 
ATOM     15  C   UNL     1     -11.056   4.381 -15.821  1.00  0.00    +0.013 A 
ATOM     16  N   UNL     1     -12.984   5.632 -15.855  1.00  0.00    -0.321 N 
ATOM     17  C   UNL     1     -11.925   3.928 -14.714  1.00  0.00    +0.073 C 
ATOM     18  C   UNL     1     -13.159   4.803 -14.764  1.00  0.00    +0.258 C 
ATOM     19  O   UNL     1     -14.108   4.788 -14.001  1.00  0.00    -0.269 OA
ATOM     20  H   UNL     1     -13.661   6.330 -16.124  1.00  0.00    +0.170 HD
BRANCH  10  21
ATOM     21  C   UNL     1      -9.464   6.461 -19.219  1.00  0.00    +0.337 C 
ATOM     22  O   UNL     1      -8.548   6.042 -19.909  1.00  0.00    -0.246 OA
BRANCH  21  23
ATOM     23  O   UNL     1     -10.132   7.626 -19.405  1.00  0.00    -0.465 OA
ATOM     24  C   UNL     1      -9.306   8.789 -19.317  1.00  0.00    +0.282 C 
ENDBRANCH  21  23
ENDBRANCH  10  21
BRANCH   9  25
ATOM     25  C   UNL     1     -10.595   2.122 -13.770  1.00  0.00    -0.001 A 
ATOM     26  C   UNL     1     -10.619   0.827 -14.312  1.00  0.00    +0.010 A 
ATOM     27  C   UNL     1      -9.398   2.618 -13.234  1.00  0.00    +0.010 A 
ATOM     28  C   UNL     1      -9.463   0.043 -14.318  1.00  0.00    +0.001 A 
ATOM     29  C   UNL     1      -8.244   1.832 -13.241  1.00  0.00    +0.001 A 
ATOM     30  C   UNL     1      -8.277   0.548 -13.784  1.00  0.00    +0.000 A 
ENDBRANCH   9  25
ENDBRANCH   7   9
ENDBRANCH   1   7
BRANCH   4  31
ATOM     31  N   UNL     1     -13.177  -1.130  -8.592  1.00  0.00    -0.314 N 
ATOM     32  C   UNL     1     -12.044  -1.227  -7.671  1.00  0.00    +0.153 C 
BRANCH  31  33
ATOM     33  C   UNL     1     -14.346  -1.894  -8.378  1.00  0.00    +0.240 C 
ATOM     34  O   UNL     1     -15.112  -1.714  -7.429  1.00  0.00    -0.273 OA
BRANCH  33  35
ATOM     35  C   UNL     1     -14.618  -3.006  -9.420  1.00  0.00    +0.185 C 
BRANCH  35  36
ATOM     36  N   UNL     1     -13.846  -4.250  -9.244  1.00  0.00    -0.292 NA
ATOM     37  C   UNL     1     -13.669  -4.656  -7.846  1.00  0.00    +0.100 C 
ATOM     38  C   UNL     1     -12.571  -4.268  -9.981  1.00  0.00    +0.100 C 
ATOM     39  C   UNL     1     -13.039  -6.071  -7.717  1.00  0.00    +0.099 C 
ATOM     40  C   UNL     1     -11.520  -5.256  -9.408  1.00  0.00    +0.099 C 
ATOM     41  N   UNL     1     -12.073  -6.465  -8.767  1.00  0.00    -0.304 NA
ATOM     42  C   UNL     1     -12.704  -7.338  -9.758  1.00  0.00    +0.105 C 
ENDBRANCH  35  36
ENDBRANCH  33  35
ENDBRANCH  31  33
ENDBRANCH   4  31
TORSDOF 9
ENDMDL
MODEL 8
REMARK VINA RESULT:    -9.010      2.014      3.692
REMARK INTER + INTRA:         -15.890
REMARK INTER:                 -14.095
REMARK INTRA:                  -1.795
REMARK UNBOUND:                -2.139
REMARK SMILES COC(=O)c1ccc2c(c1)NC(=O)/C2=C(\Nc1ccc(N(C)C(=O)CN2CCN(C)CC2)cc1)c1ccccc1
REMARK SMILES IDX 17 1 18 2 19 3 20 4 33 5 34 6 16 7 15 9 5 10 6 11 10 12 7 13
REMARK SMILES IDX 9 14 8 15 11 16 14 17 12 18 13 19 3 21 4 22 2 23 1 24 35 25
REMARK SMILES IDX 36 26 40 27 37 28 39 29 38 30 21 31 22 32 23 33 24 34 25 35
REMARK SMILES IDX 26 36 27 37 32 38 28 39 31 40 29 41 30 42
REMARK H PARENT 16 8 11 20
ROOT
ATOM      1  C   UNL     1     -10.937   1.160 -12.583  1.00  0.00    +0.039 A 
ATOM      2  C   UNL     1     -10.236   0.000 -12.893  1.00  0.00    +0.028 A 
ATOM      3  C   UNL     1     -10.374  -1.172 -12.126  1.00  0.00    +0.028 A 
ATOM      4  C   UNL     1     -11.208  -1.230 -10.999  1.00  0.00    +0.043 A 
ATOM      5  C   UNL     1     -11.921  -0.066 -10.698  1.00  0.00    +0.028 A 
ATOM      6  C   UNL     1     -11.781   1.101 -11.466  1.00  0.00    +0.028 A 
ENDROOT
BRANCH   1   7
ATOM      7  N   UNL     1     -10.830   2.387 -13.257  1.00  0.00    -0.354 N 
ATOM      8  H   UNL     1     -11.444   3.104 -12.854  1.00  0.00    +0.167 HD
BRANCH   7   9
ATOM      9  C   UNL     1     -10.122   2.847 -14.365  1.00  0.00    +0.059 C 
ATOM     10  C   UNL     1      -9.516   6.399 -18.388  1.00  0.00    +0.062 A 
ATOM     11  C   UNL     1      -8.548   5.436 -18.031  1.00  0.00    +0.016 A 
ATOM     12  C   UNL     1     -10.712   6.487 -17.665  1.00  0.00    +0.042 A 
ATOM     13  C   UNL     1      -8.764   4.550 -16.964  1.00  0.00    +0.012 A 
ATOM     14  C   UNL     1     -10.897   5.601 -16.621  1.00  0.00    +0.050 A 
ATOM     15  C   UNL     1      -9.956   4.625 -16.263  1.00  0.00    +0.013 A 
ATOM     16  N   UNL     1     -11.999   5.558 -15.776  1.00  0.00    -0.321 N 
ATOM     17  C   UNL     1     -10.535   3.903 -15.111  1.00  0.00    +0.073 C 
ATOM     18  C   UNL     1     -11.857   4.577 -14.815  1.00  0.00    +0.258 C 
ATOM     19  O   UNL     1     -12.636   4.316 -13.915  1.00  0.00    -0.269 OA
ATOM     20  H   UNL     1     -12.798   6.172 -15.815  1.00  0.00    +0.170 HD
BRANCH  10  21
ATOM     21  C   UNL     1      -9.313   7.352 -19.513  1.00  0.00    +0.337 C 
ATOM     22  O   UNL     1      -9.186   8.555 -19.357  1.00  0.00    -0.246 OA
BRANCH  21  23
ATOM     23  O   UNL     1      -9.294   6.697 -20.700  1.00  0.00    -0.465 OA
ATOM     24  C   UNL     1     -10.309   7.119 -21.613  1.00  0.00    +0.282 C 
ENDBRANCH  21  23
ENDBRANCH  10  21
BRANCH   9  25
ATOM     25  C   UNL     1      -8.831   2.215 -14.699  1.00  0.00    -0.001 A 
ATOM     26  C   UNL     1      -8.750   1.253 -15.719  1.00  0.00    +0.010 A 
ATOM     27  C   UNL     1      -7.668   2.576 -14.004  1.00  0.00    +0.010 A 
ATOM     28  C   UNL     1      -7.524   0.666 -16.038  1.00  0.00    +0.001 A 
ATOM     29  C   UNL     1      -6.444   1.987 -14.325  1.00  0.00    +0.001 A 
ATOM     30  C   UNL     1      -6.373   1.035 -15.342  1.00  0.00    +0.000 A 
ENDBRANCH   9  25
ENDBRANCH   7   9
ENDBRANCH   1   7
BRANCH   4  31
ATOM     31  N   UNL     1     -11.360  -2.450 -10.233  1.00  0.00    -0.314 N 
ATOM     32  C   UNL     1     -12.591  -3.217 -10.430  1.00  0.00    +0.153 C 
BRANCH  31  33
ATOM     33  C   UNL     1     -10.328  -2.947  -9.406  1.00  0.00    +0.240 C 
ATOM     34  O   UNL     1      -9.961  -4.124  -9.409  1.00  0.00    -0.273 OA
BRANCH  33  35
ATOM     35  C   UNL     1      -9.669  -1.910  -8.464  1.00  0.00    +0.185 C 
BRANCH  35  36
ATOM     36  N   UNL     1      -8.206  -1.769  -8.590  1.00  0.00    -0.292 NA
ATOM     37  C   UNL     1      -7.703  -1.921  -9.959  1.00  0.00    +0.100 C 
ATOM     38  C   UNL     1      -7.445  -2.594  -7.636  1.00  0.00    +0.100 C 
ATOM     39  C   UNL     1      -6.196  -1.557 -10.079  1.00  0.00    +0.099 C 
ATOM     40  C   UNL     1      -5.990  -2.899  -8.081  1.00  0.00    +0.099 C 
ATOM     41  N   UNL     1      -5.347  -1.855  -8.902  1.00  0.00    -0.304 NA
ATOM     42  C   UNL     1      -5.105  -0.647  -8.113  1.00  0.00    +0.105 C 
ENDBRANCH  35  36
ENDBRANCH  33  35
ENDBRANCH  31  33
ENDBRANCH   4  31
TORSDOF 9
ENDMDL
MODEL 9
REMARK VINA RESULT:    -8.978      2.232      3.525
REMARK INTER + INTRA:         -15.841
REMARK INTER:                 -14.831
REMARK INTRA:                  -1.010
REMARK UNBOUND:                -2.139
REMARK SMILES COC(=O)c1ccc2c(c1)NC(=O)/C2=C(\Nc1ccc(N(C)C(=O)CN2CCN(C)CC2)cc1)c1ccccc1
REMARK SMILES IDX 17 1 18 2 19 3 20 4 33 5 34 6 16 7 15 9 5 10 6 11 10 12 7 13
REMARK SMILES IDX 9 14 8 15 11 16 14 17 12 18 13 19 3 21 4 22 2 23 1 24 35 25
REMARK SMILES IDX 36 26 40 27 37 28 39 29 38 30 21 31 22 32 23 33 24 34 25 35
REMARK SMILES IDX 26 36 27 37 32 38 28 39 31 40 29 41 30 42
REMARK H PARENT 16 8 11 20
ROOT
ATOM      1  C   UNL     1     -12.914   1.993 -11.956  1.00  0.00    +0.039 A 
ATOM      2  C   UNL     1     -14.104   1.813 -11.260  1.00  0.00    +0.028 A 
ATOM      3  C   UNL     1     -14.211   0.881 -10.210  1.00  0.00    +0.028 A 
ATOM      4  C   UNL     1     -13.133   0.070  -9.824  1.00  0.00    +0.043 A 
ATOM      5  C   UNL     1     -11.935   0.262 -10.519  1.00  0.00    +0.028 A 
ATOM      6  C   UNL     1     -11.833   1.194 -11.564  1.00  0.00    +0.028 A 
ENDROOT
BRANCH   1   7
ATOM      7  N   UNL     1     -12.725   2.860 -13.045  1.00  0.00    -0.354 N 
ATOM      8  H   UNL     1     -13.549   3.447 -13.220  1.00  0.00    +0.167 HD
BRANCH   7   9
ATOM      9  C   UNL     1     -11.704   3.081 -13.966  1.00  0.00    +0.059 C 
ATOM     10  C   UNL     1      -9.586   5.973 -18.005  1.00  0.00    +0.062 A 
ATOM     11  C   UNL     1      -8.896   4.953 -17.317  1.00  0.00    +0.016 A 
ATOM     12  C   UNL     1     -10.896   6.302 -17.634  1.00  0.00    +0.042 A 
ATOM     13  C   UNL     1      -9.502   4.248 -16.265  1.00  0.00    +0.012 A 
ATOM     14  C   UNL     1     -11.466   5.590 -16.596  1.00  0.00    +0.050 A 
ATOM     15  C   UNL     1     -10.804   4.561 -15.913  1.00  0.00    +0.013 A 
ATOM     16  N   UNL     1     -12.737   5.794 -16.071  1.00  0.00    -0.321 N 
ATOM     17  C   UNL     1     -11.753   4.073 -14.891  1.00  0.00    +0.073 C 
ATOM     18  C   UNL     1     -12.988   4.938 -15.018  1.00  0.00    +0.258 C 
ATOM     19  O   UNL     1     -13.996   4.894 -14.334  1.00  0.00    -0.269 OA
ATOM     20  H   UNL     1     -13.398   6.493 -16.377  1.00  0.00    +0.170 HD
BRANCH  10  21
ATOM     21  C   UNL     1      -8.969   6.738 -19.123  1.00  0.00    +0.337 C 
ATOM     22  O   UNL     1      -8.035   6.318 -19.787  1.00  0.00    -0.246 OA
BRANCH  21  23
ATOM     23  O   UNL     1      -9.585   7.936 -19.284  1.00  0.00    -0.465 OA
ATOM     24  C   UNL     1      -9.899   8.248 -20.642  1.00  0.00    +0.282 C 
ENDBRANCH  21  23
ENDBRANCH  10  21
BRANCH   9  25
ATOM     25  C   UNL     1     -10.483   2.255 -13.887  1.00  0.00    -0.001 A 
ATOM     26  C   UNL     1     -10.462   0.959 -14.426  1.00  0.00    +0.010 A 
ATOM     27  C   UNL     1      -9.326   2.763 -13.280  1.00  0.00    +0.010 A 
ATOM     28  C   UNL     1      -9.301   0.186 -14.358  1.00  0.00    +0.001 A 
ATOM     29  C   UNL     1      -8.167   1.989 -13.213  1.00  0.00    +0.001 A 
ATOM     30  C   UNL     1      -8.155   0.702 -13.754  1.00  0.00    +0.000 A 
ENDBRANCH   9  25
ENDBRANCH   7   9
ENDBRANCH   1   7
BRANCH   4  31
ATOM     31  N   UNL     1     -13.249  -0.868  -8.726  1.00  0.00    -0.314 N 
ATOM     32  C   UNL     1     -12.494  -0.571  -7.508  1.00  0.00    +0.153 C 
BRANCH  31  33
ATOM     33  C   UNL     1     -14.131  -1.971  -8.775  1.00  0.00    +0.240 C 
ATOM     34  O   UNL     1     -14.416  -2.569  -9.815  1.00  0.00    -0.273 OA
BRANCH  33  35
ATOM     35  C   UNL     1     -14.746  -2.395  -7.419  1.00  0.00    +0.185 C 
BRANCH  35  36
ATOM     36  N   UNL     1     -16.123  -1.933  -7.168  1.00  0.00    -0.292 NA
ATOM     37  C   UNL     1     -16.223  -0.521  -6.783  1.00  0.00    +0.100 C 
ATOM     38  C   UNL     1     -16.884  -2.801  -6.253  1.00  0.00    +0.100 C 
ATOM     39  C   UNL     1     -17.695  -0.024  -6.736  1.00  0.00    +0.099 C 
ATOM     40  C   UNL     1     -18.073  -2.094  -5.548  1.00  0.00    +0.099 C 
ATOM     41  N   UNL     1     -18.716  -1.015  -6.323  1.00  0.00    -0.304 NA
ATOM     42  C   UNL     1     -19.419  -1.556  -7.487  1.00  0.00    +0.105 C 
ENDBRANCH  35  36
ENDBRANCH  33  35
ENDBRANCH  31  33
ENDBRANCH   4  31
TORSDOF 9
ENDMDL
MODEL 10
REMARK VINA RESULT:    -8.957      4.923      7.470
REMARK INTER + INTRA:         -15.809
REMARK INTER:                 -14.262
REMARK INTRA:                  -1.547
REMARK UNBOUND:                -2.139
REMARK SMILES COC(=O)c1ccc2c(c1)NC(=O)/C2=C(\Nc1ccc(N(C)C(=O)CN2CCN(C)CC2)cc1)c1ccccc1
REMARK SMILES IDX 17 1 18 2 19 3 20 4 33 5 34 6 16 7 15 9 5 10 6 11 10 12 7 13
REMARK SMILES IDX 9 14 8 15 11 16 14 17 12 18 13 19 3 21 4 22 2 23 1 24 35 25
REMARK SMILES IDX 36 26 40 27 37 28 39 29 38 30 21 31 22 32 23 33 24 34 25 35
REMARK SMILES IDX 26 36 27 37 32 38 28 39 31 40 29 41 30 42
REMARK H PARENT 16 8 11 20
ROOT
ATOM      1  C   UNL     1      -6.245  -0.012 -14.438  1.00  0.00    +0.039 A 
ATOM      2  C   UNL     1      -5.819  -0.915 -15.405  1.00  0.00    +0.028 A 
ATOM      3  C   UNL     1      -5.631  -2.279 -15.110  1.00  0.00    +0.028 A 
ATOM      4  C   UNL     1      -5.841  -2.797 -13.823  1.00  0.00    +0.043 A 
ATOM      5  C   UNL     1      -6.281  -1.888 -12.856  1.00  0.00    +0.028 A 
ATOM      6  C   UNL     1      -6.469  -0.529 -13.155  1.00  0.00    +0.028 A 
ENDROOT
BRANCH   1   7
ATOM      7  N   UNL     1      -6.414   1.370 -14.624  1.00  0.00    -0.354 N 
ATOM      8  H   UNL     1      -5.587   1.903 -14.330  1.00  0.00    +0.167 HD
BRANCH   7   9
ATOM      9  C   UNL     1      -7.450   2.187 -15.069  1.00  0.00    +0.059 C 
ATOM     10  C   UNL     1      -9.341   5.888 -18.517  1.00  0.00    +0.062 A 
ATOM     11  C   UNL     1     -10.143   5.190 -17.590  1.00  0.00    +0.016 A 
ATOM     12  C   UNL     1      -7.969   5.619 -18.596  1.00  0.00    +0.042 A 
ATOM     13  C   UNL     1      -9.588   4.229 -16.730  1.00  0.00    +0.012 A 
ATOM     14  C   UNL     1      -7.452   4.669 -17.736  1.00  0.00    +0.050 A 
ATOM     15  C   UNL     1      -8.228   3.978 -16.795  1.00  0.00    +0.013 A 
ATOM     16  N   UNL     1      -6.128   4.248 -17.690  1.00  0.00    -0.321 N 
ATOM     17  C   UNL     1      -7.302   3.066 -16.092  1.00  0.00    +0.073 C 
ATOM     18  C   UNL     1      -5.948   3.262 -16.741  1.00  0.00    +0.258 C 
ATOM     19  O   UNL     1      -4.913   2.672 -16.486  1.00  0.00    -0.269 OA
ATOM     20  H   UNL     1      -5.382   4.578 -18.283  1.00  0.00    +0.170 HD
BRANCH  10  21
ATOM     21  C   UNL     1      -9.901   6.912 -19.442  1.00  0.00    +0.337 C 
ATOM     22  O   UNL     1      -9.997   8.093 -19.153  1.00  0.00    -0.246 OA
BRANCH  21  23
ATOM     23  O   UNL     1     -10.276   6.346 -20.616  1.00  0.00    -0.465 OA
ATOM     24  C   UNL     1     -10.050   7.174 -21.757  1.00  0.00    +0.282 C 
ENDBRANCH  21  23
ENDBRANCH  10  21
BRANCH   9  25
ATOM     25  C   UNL     1      -8.786   2.039 -14.460  1.00  0.00    -0.001 A 
ATOM     26  C   UNL     1      -9.256   2.984 -13.534  1.00  0.00    +0.010 A 
ATOM     27  C   UNL     1      -9.604   0.955 -14.809  1.00  0.00    +0.010 A 
ATOM     28  C   UNL     1     -10.526   2.845 -12.969  1.00  0.00    +0.001 A 
ATOM     29  C   UNL     1     -10.873   0.819 -14.242  1.00  0.00    +0.001 A 
ATOM     30  C   UNL     1     -11.333   1.765 -13.325  1.00  0.00    +0.000 A 
ENDBRANCH   9  25
ENDBRANCH   7   9
ENDBRANCH   1   7
BRANCH   4  31
ATOM     31  N   UNL     1      -5.669  -4.206 -13.539  1.00  0.00    -0.314 N 
ATOM     32  C   UNL     1      -5.488  -4.591 -12.138  1.00  0.00    +0.153 C 
BRANCH  31  33
ATOM     33  C   UNL     1      -5.773  -5.190 -14.547  1.00  0.00    +0.240 C 
ATOM     34  O   UNL     1      -6.638  -5.176 -15.425  1.00  0.00    -0.273 OA
BRANCH  33  35
ATOM     35  C   UNL     1      -4.721  -6.325 -14.485  1.00  0.00    +0.185 C 
BRANCH  35  36
ATOM     36  N   UNL     1      -4.057  -6.652 -15.761  1.00  0.00    -0.292 NA
ATOM     37  C   UNL     1      -3.510  -5.491 -16.470  1.00  0.00    +0.100 C 
ATOM     38  C   UNL     1      -4.867  -7.502 -16.651  1.00  0.00    +0.100 C 
ATOM     39  C   UNL     1      -2.641  -5.901 -17.692  1.00  0.00    +0.099 C 
ATOM     40  C   UNL     1      -4.473  -7.407 -18.150  1.00  0.00    +0.099 C 
ATOM     41  N   UNL     1      -3.048  -7.129 -18.413  1.00  0.00    -0.304 NA
ATOM     42  C   UNL     1      -2.214  -8.265 -18.020  1.00  0.00    +0.105 C 
ENDBRANCH  35  36
ENDBRANCH  33  35
ENDBRANCH  31  33
ENDBRANCH   4  31
TORSDOF 9
ENDMDL
