MODEL 1
REMARK VINA RESULT:   -10.747      0.000      0.000
REMARK INTER + INTRA:         -14.146
REMARK INTER:                 -13.889
REMARK INTRA:                  -0.257
REMARK UNBOUND:                -0.257
REMARK SMILES CCn1c(=O)c(-c2cc(NC(=O)Nc3ccccc3)c(F)cc2Br)cc2cnc(NC)cc21
REMARK SMILES IDX 3 1 4 2 5 3 6 4 25 5 26 6 27 7 28 8 29 9 32 10 33 11 2 12
REMARK SMILES IDX 1 13 7 14 8 15 23 16 9 17 22 18 20 19 24 20 21 21 10 22
REMARK SMILES IDX 11 23 12 24 13 25 14 28 15 29 19 30 16 31 18 32 17 33 30 34
REMARK SMILES IDX 31 35
REMARK H PARENT 10 26 13 27 30 36
ROOT
ATOM      1  N   UNL     1     -38.777 162.891  -2.282  1.00  0.00    -0.308 N 
ATOM      2  C   UNL     1     -39.003 162.162  -1.111  1.00  0.00    +0.258 C 
ATOM      3  O   UNL     1     -38.943 162.656   0.015  1.00  0.00    -0.269 OA
ATOM      4  C   UNL     1     -39.332 160.704  -1.258  1.00  0.00    +0.049 C 
ATOM      5  C   UNL     1     -39.347 160.124  -2.467  1.00  0.00    +0.026 C 
ATOM      6  C   UNL     1     -39.045 160.902  -3.660  1.00  0.00    +0.018 A 
ATOM      7  C   UNL     1     -39.035 160.317  -4.917  1.00  0.00    +0.123 A 
ATOM      8  N   UNL     1     -38.762 160.980  -6.063  1.00  0.00    -0.239 NA
ATOM      9  C   UNL     1     -38.471 162.290  -5.976  1.00  0.00    +0.127 A 
ATOM     10  C   UNL     1     -38.473 162.959  -4.751  1.00  0.00    +0.073 A 
ATOM     11  C   UNL     1     -38.763 162.265  -3.570  1.00  0.00    +0.056 A 
ENDROOT
BRANCH   1  12
ATOM     12  C   UNL     1     -38.478 164.314  -2.131  1.00  0.00    +0.122 C 
ATOM     13  C   UNL     1     -39.226 165.170  -3.143  1.00  0.00    +0.028 C 
ENDBRANCH   1  12
BRANCH   4  14
ATOM     14  C   UNL     1     -39.645 159.893  -0.067  1.00  0.00    +0.004 A 
ATOM     15  C   UNL     1     -38.617 159.107   0.492  1.00  0.00    +0.039 A 
ATOM     16  C   UNL     1     -40.918 159.884   0.530  1.00  0.00    +0.029 A 
ATOM     17  C   UNL     1     -38.852 158.327   1.626  1.00  0.00    +0.079 A 
ATOM     18  C   UNL     1     -41.156 159.119   1.671  1.00  0.00    +0.057 A 
ATOM     19  C   UNL     1     -40.124 158.357   2.208  1.00  0.00    +0.147 A 
ATOM     20 Br   UNL     1     -42.380 160.871  -0.180  1.00  0.00    -0.050 Br
ATOM     21  F   UNL     1     -40.363 157.623   3.306  1.00  0.00    -0.205 F 
BRANCH  17  22
ATOM     22  N   UNL     1     -37.878 157.517   2.249  1.00  0.00    -0.305 N 
ATOM     23  C   UNL     1     -37.320 157.692   3.506  1.00  0.00    +0.323 C 
ATOM     24  O   UNL     1     -37.531 158.658   4.226  1.00  0.00    -0.248 OA
ATOM     25  N   UNL     1     -36.496 156.621   3.815  1.00  0.00    -0.308 N 
ATOM     26  H   UNL     1     -37.413 156.860   1.635  1.00  0.00    +0.171 HD
ATOM     27  H   UNL     1     -36.599 155.805   3.232  1.00  0.00    +0.171 HD
BRANCH  25  28
ATOM     28  C   UNL     1     -35.675 156.466   4.951  1.00  0.00    +0.042 A 
ATOM     29  C   UNL     1     -36.122 155.591   5.950  1.00  0.00    +0.026 A 
ATOM     30  C   UNL     1     -34.448 157.111   5.121  1.00  0.00    +0.026 A 
ATOM     31  C   UNL     1     -35.362 155.375   7.102  1.00  0.00    +0.002 A 
ATOM     32  C   UNL     1     -33.688 156.895   6.276  1.00  0.00    +0.002 A 
ATOM     33  C   UNL     1     -34.145 156.028   7.266  1.00  0.00    +0.000 A 
ENDBRANCH  25  28
ENDBRANCH  17  22
ENDBRANCH   4  14
BRANCH   9  34
ATOM     34  N   UNL     1     -38.199 163.039  -7.134  1.00  0.00    -0.373 N 
ATOM     35  C   UNL     1     -38.232 164.480  -6.935  1.00  0.00    +0.141 C 
ATOM     36  H   UNL     1     -38.831 162.749  -7.874  1.00  0.00    +0.161 HD
ENDBRANCH   9  34
TORSDOF 5
ENDMDL
MODEL 2
REMARK VINA RESULT:   -10.712      1.226      2.257
REMARK INTER + INTRA:         -14.101
REMARK INTER:                 -13.414
REMARK INTRA:                  -0.686
REMARK UNBOUND:                -0.257
REMARK SMILES CCn1c(=O)c(-c2cc(NC(=O)Nc3ccccc3)c(F)cc2Br)cc2cnc(NC)cc21
REMARK SMILES IDX 3 1 4 2 5 3 6 4 25 5 26 6 27 7 28 8 29 9 32 10 33 11 2 12
REMARK SMILES IDX 1 13 7 14 8 15 23 16 9 17 22 18 20 19 24 20 21 21 10 22
REMARK SMILES IDX 11 23 12 24 13 25 14 28 15 29 19 30 16 31 18 32 17 33 30 34
REMARK SMILES IDX 31 35
REMARK H PARENT 10 26 13 27 30 36
ROOT
ATOM      1  N   UNL     1     -38.731 160.995  -3.605  1.00  0.00    -0.308 N 
ATOM      2  C   UNL     1     -39.088 160.153  -2.548  1.00  0.00    +0.258 C 
ATOM      3  O   UNL     1     -39.214 158.934  -2.669  1.00  0.00    -0.269 OA
ATOM      4  C   UNL     1     -39.327 160.788  -1.209  1.00  0.00    +0.049 C 
ATOM      5  C   UNL     1     -39.254 162.119  -1.059  1.00  0.00    +0.026 C 
ATOM      6  C   UNL     1     -38.940 162.970  -2.198  1.00  0.00    +0.018 A 
ATOM      7  C   UNL     1     -38.880 164.350  -2.069  1.00  0.00    +0.123 A 
ATOM      8  N   UNL     1     -38.596 165.198  -3.082  1.00  0.00    -0.239 NA
ATOM      9  C   UNL     1     -38.367 164.668  -4.297  1.00  0.00    +0.127 A 
ATOM     10  C   UNL     1     -38.394 163.289  -4.509  1.00  0.00    +0.073 A 
ATOM     11  C   UNL     1     -38.683 162.418  -3.452  1.00  0.00    +0.056 A 
ENDROOT
BRANCH   1  12
ATOM     12  C   UNL     1     -38.479 160.367  -4.901  1.00  0.00    +0.122 C 
ATOM     13  C   UNL     1     -39.726 160.322  -5.771  1.00  0.00    +0.028 C 
ENDBRANCH   1  12
BRANCH   4  14
ATOM     14  C   UNL     1     -39.643 159.948  -0.038  1.00  0.00    +0.004 A 
ATOM     15  C   UNL     1     -38.613 159.163   0.516  1.00  0.00    +0.039 A 
ATOM     16  C   UNL     1     -40.923 159.911   0.542  1.00  0.00    +0.029 A 
ATOM     17  C   UNL     1     -38.851 158.357   1.631  1.00  0.00    +0.079 A 
ATOM     18  C   UNL     1     -41.165 159.120   1.665  1.00  0.00    +0.057 A 
ATOM     19  C   UNL     1     -40.130 158.360   2.198  1.00  0.00    +0.147 A 
ATOM     20 Br   UNL     1     -42.389 160.895  -0.164  1.00  0.00    -0.050 Br
ATOM     21  F   UNL     1     -40.372 157.600   3.278  1.00  0.00    -0.205 F 
BRANCH  17  22
ATOM     22  N   UNL     1     -37.874 157.547   2.249  1.00  0.00    -0.305 N 
ATOM     23  C   UNL     1     -37.322 157.711   3.510  1.00  0.00    +0.323 C 
ATOM     24  O   UNL     1     -37.542 158.668   4.240  1.00  0.00    -0.248 OA
ATOM     25  N   UNL     1     -36.492 156.642   3.811  1.00  0.00    -0.308 N 
ATOM     26  H   UNL     1     -37.403 156.900   1.630  1.00  0.00    +0.171 HD
ATOM     27  H   UNL     1     -36.588 155.832   3.218  1.00  0.00    +0.171 HD
BRANCH  25  28
ATOM     28  C   UNL     1     -35.675 156.480   4.948  1.00  0.00    +0.042 A 
ATOM     29  C   UNL     1     -36.126 155.600   5.941  1.00  0.00    +0.026 A 
ATOM     30  C   UNL     1     -34.448 157.122   5.125  1.00  0.00    +0.026 A 
ATOM     31  C   UNL     1     -35.370 155.377   7.094  1.00  0.00    +0.002 A 
ATOM     32  C   UNL     1     -33.691 156.898   6.281  1.00  0.00    +0.002 A 
ATOM     33  C   UNL     1     -34.152 156.027   7.265  1.00  0.00    +0.000 A 
ENDBRANCH  25  28
ENDBRANCH  17  22
ENDBRANCH   4  14
BRANCH   9  34
ATOM     34  N   UNL     1     -38.046 165.496  -5.387  1.00  0.00    -0.373 N 
ATOM     35  C   UNL     1     -38.223 164.867  -6.687  1.00  0.00    +0.141 C 
ATOM     36  H   UNL     1     -37.102 165.850  -5.269  1.00  0.00    +0.161 HD
ENDBRANCH   9  34
TORSDOF 5
ENDMDL
MODEL 3
REMARK VINA RESULT:    -9.344      4.928     12.477
REMARK INTER + INTRA:         -12.332
REMARK INTER:                 -12.864
REMARK INTRA:                   0.532
REMARK UNBOUND:                -0.257
REMARK SMILES CCn1c(=O)c(-c2cc(NC(=O)Nc3ccccc3)c(F)cc2Br)cc2cnc(NC)cc21
REMARK SMILES IDX 3 1 4 2 5 3 6 4 25 5 26 6 27 7 28 8 29 9 32 10 33 11 2 12
REMARK SMILES IDX 1 13 7 14 8 15 23 16 9 17 22 18 20 19 24 20 21 21 10 22
REMARK SMILES IDX 11 23 12 24 13 25 14 28 15 29 19 30 16 31 18 32 17 33 30 34
REMARK SMILES IDX 31 35
REMARK H PARENT 10 26 13 27 30 36
ROOT
ATOM      1  N   UNL     1     -37.545 151.190   5.519  1.00  0.00    -0.308 N 
ATOM      2  C   UNL     1     -37.290 152.495   5.089  1.00  0.00    +0.258 C 
ATOM      3  O   UNL     1     -37.866 153.015   4.133  1.00  0.00    -0.269 OA
ATOM      4  C   UNL     1     -36.260 153.283   5.844  1.00  0.00    +0.049 C 
ATOM      5  C   UNL     1     -35.574 152.725   6.853  1.00  0.00    +0.026 C 
ATOM      6  C   UNL     1     -35.823 151.342   7.234  1.00  0.00    +0.018 A 
ATOM      7  C   UNL     1     -35.112 150.740   8.261  1.00  0.00    +0.123 A 
ATOM      8  N   UNL     1     -35.290 149.462   8.664  1.00  0.00    -0.239 NA
ATOM      9  C   UNL     1     -36.211 148.724   8.018  1.00  0.00    +0.127 A 
ATOM     10  C   UNL     1     -36.981 149.258   6.983  1.00  0.00    +0.073 A 
ATOM     11  C   UNL     1     -36.792 150.584   6.577  1.00  0.00    +0.056 A 
ENDROOT
BRANCH   1  12
ATOM     12  C   UNL     1     -38.565 150.437   4.792  1.00  0.00    +0.122 C 
ATOM     13  C   UNL     1     -39.909 150.452   5.505  1.00  0.00    +0.028 C 
ENDBRANCH   1  12
BRANCH   4  14
ATOM     14  C   UNL     1     -35.991 154.688   5.482  1.00  0.00    +0.004 A 
ATOM     15  C   UNL     1     -37.065 155.474   5.019  1.00  0.00    +0.039 A 
ATOM     16  C   UNL     1     -34.713 155.265   5.589  1.00  0.00    +0.029 A 
ATOM     17  C   UNL     1     -36.873 156.812   4.672  1.00  0.00    +0.079 A 
ATOM     18  C   UNL     1     -34.516 156.606   5.258  1.00  0.00    +0.057 A 
ATOM     19  C   UNL     1     -35.593 157.362   4.811  1.00  0.00    +0.147 A 
ATOM     20 Br   UNL     1     -33.193 154.273   6.155  1.00  0.00    -0.050 Br
ATOM     21  F   UNL     1     -35.394 158.651   4.494  1.00  0.00    -0.205 F 
BRANCH  17  22
ATOM     22  N   UNL     1     -37.895 157.667   4.206  1.00  0.00    -0.305 N 
ATOM     23  C   UNL     1     -38.168 158.011   2.891  1.00  0.00    +0.323 C 
ATOM     24  O   UNL     1     -37.475 157.688   1.936  1.00  0.00    -0.248 OA
ATOM     25  N   UNL     1     -39.327 158.768   2.827  1.00  0.00    -0.308 N 
ATOM     26  H   UNL     1     -38.345 158.223   4.922  1.00  0.00    +0.171 HD
ATOM     27  H   UNL     1     -39.903 158.759   3.653  1.00  0.00    +0.171 HD
BRANCH  25  28
ATOM     28  C   UNL     1     -39.887 159.391   1.693  1.00  0.00    +0.042 A 
ATOM     29  C   UNL     1     -39.047 160.222   0.938  1.00  0.00    +0.026 A 
ATOM     30  C   UNL     1     -41.206 159.210   1.273  1.00  0.00    +0.026 A 
ATOM     31  C   UNL     1     -39.521 160.868  -0.205  1.00  0.00    +0.002 A 
ATOM     32  C   UNL     1     -41.681 159.858   0.128  1.00  0.00    +0.002 A 
ATOM     33  C   UNL     1     -40.840 160.687  -0.610  1.00  0.00    +0.000 A 
ENDBRANCH  25  28
ENDBRANCH  17  22
ENDBRANCH   4  14
BRANCH   9  34
ATOM     34  N   UNL     1     -36.459 147.395   8.403  1.00  0.00    -0.373 N 
ATOM     35  C   UNL     1     -35.292 146.529   8.348  1.00  0.00    +0.141 C 
ATOM     36  H   UNL     1     -37.226 147.026   7.849  1.00  0.00    +0.161 HD
ENDBRANCH   9  34
TORSDOF 5
ENDMDL
MODEL 4
REMARK VINA RESULT:    -8.777      5.132     12.214
REMARK INTER + INTRA:         -11.600
REMARK INTER:                 -11.413
REMARK INTRA:                  -0.187
REMARK UNBOUND:                -0.257
REMARK SMILES CCn1c(=O)c(-c2cc(NC(=O)Nc3ccccc3)c(F)cc2Br)cc2cnc(NC)cc21
REMARK SMILES IDX 3 1 4 2 5 3 6 4 25 5 26 6 27 7 28 8 29 9 32 10 33 11 2 12
REMARK SMILES IDX 1 13 7 14 8 15 23 16 9 17 22 18 20 19 24 20 21 21 10 22
REMARK SMILES IDX 11 23 12 24 13 25 14 28 15 29 19 30 16 31 18 32 17 33 30 34
REMARK SMILES IDX 31 35
REMARK H PARENT 10 26 13 27 30 36
ROOT
ATOM      1  N   UNL     1     -36.087 150.892   5.556  1.00  0.00    -0.308 N 
ATOM      2  C   UNL     1     -35.959 152.280   5.463  1.00  0.00    +0.258 C 
ATOM      3  O   UNL     1     -34.904 152.843   5.167  1.00  0.00    -0.269 OA
ATOM      4  C   UNL     1     -37.180 153.107   5.745  1.00  0.00    +0.049 C 
ATOM      5  C   UNL     1     -38.327 152.526   6.127  1.00  0.00    +0.026 C 
ATOM      6  C   UNL     1     -38.406 151.080   6.273  1.00  0.00    +0.018 A 
ATOM      7  C   UNL     1     -39.576 150.462   6.686  1.00  0.00    +0.123 A 
ATOM      8  N   UNL     1     -39.718 149.127   6.843  1.00  0.00    -0.239 NA
ATOM      9  C   UNL     1     -38.649 148.349   6.592  1.00  0.00    +0.127 A 
ATOM     10  C   UNL     1     -37.438 148.891   6.158  1.00  0.00    +0.073 A 
ATOM     11  C   UNL     1     -37.303 150.274   5.993  1.00  0.00    +0.056 A 
ENDROOT
BRANCH   1  12
ATOM     12  C   UNL     1     -34.899 150.093   5.259  1.00  0.00    +0.122 C 
ATOM     13  C   UNL     1     -35.051 149.291   3.974  1.00  0.00    +0.028 C 
ENDBRANCH   1  12
BRANCH   4  14
ATOM     14  C   UNL     1     -37.129 154.574   5.602  1.00  0.00    +0.004 A 
ATOM     15  C   UNL     1     -37.929 155.175   4.609  1.00  0.00    +0.039 A 
ATOM     16  C   UNL     1     -36.324 155.387   6.420  1.00  0.00    +0.029 A 
ATOM     17  C   UNL     1     -37.929 156.560   4.434  1.00  0.00    +0.079 A 
ATOM     18  C   UNL     1     -36.331 156.773   6.261  1.00  0.00    +0.057 A 
ATOM     19  C   UNL     1     -37.134 157.341   5.280  1.00  0.00    +0.147 A 
ATOM     20 Br   UNL     1     -35.174 154.666   7.752  1.00  0.00    -0.050 Br
ATOM     21  F   UNL     1     -37.133 158.676   5.133  1.00  0.00    -0.205 F 
BRANCH  17  22
ATOM     22  N   UNL     1     -38.704 157.238   3.469  1.00  0.00    -0.305 N 
ATOM     23  C   UNL     1     -38.251 157.861   2.315  1.00  0.00    +0.323 C 
ATOM     24  O   UNL     1     -37.071 157.997   2.022  1.00  0.00    -0.248 OA
ATOM     25  N   UNL     1     -39.326 158.303   1.559  1.00  0.00    -0.308 N 
ATOM     26  H   UNL     1     -39.653 157.446   3.752  1.00  0.00    +0.171 HD
ATOM     27  H   UNL     1     -40.225 157.924   1.810  1.00  0.00    +0.171 HD
BRANCH  25  28
ATOM     28  C   UNL     1     -39.288 159.065   0.373  1.00  0.00    +0.042 A 
ATOM     29  C   UNL     1     -38.978 158.387  -0.814  1.00  0.00    +0.026 A 
ATOM     30  C   UNL     1     -39.559 160.433   0.315  1.00  0.00    +0.026 A 
ATOM     31  C   UNL     1     -38.930 159.067  -2.033  1.00  0.00    +0.002 A 
ATOM     32  C   UNL     1     -39.510 161.114  -0.906  1.00  0.00    +0.002 A 
ATOM     33  C   UNL     1     -39.195 160.432  -2.079  1.00  0.00    +0.000 A 
ENDBRANCH  25  28
ENDBRANCH  17  22
ENDBRANCH   4  14
BRANCH   9  34
ATOM     34  N   UNL     1     -38.738 146.952   6.717  1.00  0.00    -0.373 N 
ATOM     35  C   UNL     1     -39.902 146.490   7.457  1.00  0.00    +0.141 C 
ATOM     36  H   UNL     1     -37.875 146.599   7.119  1.00  0.00    +0.161 HD
ENDBRANCH   9  34
TORSDOF 5
ENDMDL
MODEL 5
REMARK VINA RESULT:    -8.638     11.109     13.072
REMARK INTER + INTRA:         -11.420
REMARK INTER:                 -10.640
REMARK INTRA:                  -0.779
REMARK UNBOUND:                -0.257
REMARK SMILES CCn1c(=O)c(-c2cc(NC(=O)Nc3ccccc3)c(F)cc2Br)cc2cnc(NC)cc21
REMARK SMILES IDX 3 1 4 2 5 3 6 4 25 5 26 6 27 7 28 8 29 9 32 10 33 11 2 12
REMARK SMILES IDX 1 13 7 14 8 15 23 16 9 17 22 18 20 19 24 20 21 21 10 22
REMARK SMILES IDX 11 23 12 24 13 25 14 28 15 29 19 30 16 31 18 32 17 33 30 34
REMARK SMILES IDX 31 35
REMARK H PARENT 10 26 13 27 30 36
ROOT
ATOM      1  N   UNL     1     -35.888 147.115  -0.884  1.00  0.00    -0.308 N 
ATOM      2  C   UNL     1     -35.376 146.997   0.411  1.00  0.00    +0.258 C 
ATOM      3  O   UNL     1     -34.180 146.827   0.651  1.00  0.00    -0.269 OA
ATOM      4  C   UNL     1     -36.349 147.083   1.550  1.00  0.00    +0.049 C 
ATOM      5  C   UNL     1     -37.665 147.209   1.319  1.00  0.00    +0.026 C 
ATOM      6  C   UNL     1     -38.169 147.267  -0.045  1.00  0.00    +0.018 A 
ATOM      7  C   UNL     1     -39.526 147.378  -0.307  1.00  0.00    +0.123 A 
ATOM      8  N   UNL     1     -40.061 147.435  -1.547  1.00  0.00    -0.239 NA
ATOM      9  C   UNL     1     -39.221 147.370  -2.595  1.00  0.00    +0.127 A 
ATOM     10  C   UNL     1     -37.840 147.273  -2.419  1.00  0.00    +0.073 A 
ATOM     11  C   UNL     1     -37.295 147.220  -1.131  1.00  0.00    +0.056 A 
ENDROOT
BRANCH   1  12
ATOM     12  C   UNL     1     -34.931 147.053  -1.987  1.00  0.00    +0.122 C 
ATOM     13  C   UNL     1     -34.669 145.624  -2.441  1.00  0.00    +0.028 C 
ENDBRANCH   1  12
BRANCH   4  14
ATOM     14  C   UNL     1     -35.866 147.030   2.943  1.00  0.00    +0.004 A 
ATOM     15  C   UNL     1     -35.330 148.205   3.507  1.00  0.00    +0.039 A 
ATOM     16  C   UNL     1     -35.927 145.861   3.722  1.00  0.00    +0.029 A 
ATOM     17  C   UNL     1     -34.867 148.218   4.823  1.00  0.00    +0.079 A 
ATOM     18  C   UNL     1     -35.480 145.870   5.043  1.00  0.00    +0.057 A 
ATOM     19  C   UNL     1     -34.963 147.044   5.578  1.00  0.00    +0.147 A 
ATOM     20 Br   UNL     1     -36.586 144.215   3.034  1.00  0.00    -0.050 Br
ATOM     21  F   UNL     1     -34.533 147.042   6.850  1.00  0.00    -0.205 F 
BRANCH  17  22
ATOM     22  N   UNL     1     -34.322 149.353   5.463  1.00  0.00    -0.305 N 
ATOM     23  C   UNL     1     -34.906 150.604   5.594  1.00  0.00    +0.323 C 
ATOM     24  O   UNL     1     -35.961 150.931   5.069  1.00  0.00    -0.248 OA
ATOM     25  N   UNL     1     -34.119 151.416   6.396  1.00  0.00    -0.308 N 
ATOM     26  H   UNL     1     -33.336 149.290   5.677  1.00  0.00    +0.171 HD
ATOM     27  H   UNL     1     -33.409 150.945   6.934  1.00  0.00    +0.171 HD
BRANCH  25  28
ATOM     28  C   UNL     1     -34.312 152.780   6.692  1.00  0.00    +0.042 A 
ATOM     29  C   UNL     1     -33.328 153.677   6.251  1.00  0.00    +0.026 A 
ATOM     30  C   UNL     1     -35.424 153.283   7.370  1.00  0.00    +0.026 A 
ATOM     31  C   UNL     1     -33.449 155.046   6.495  1.00  0.00    +0.002 A 
ATOM     32  C   UNL     1     -35.544 154.655   7.615  1.00  0.00    +0.002 A 
ATOM     33  C   UNL     1     -34.558 155.536   7.178  1.00  0.00    +0.000 A 
ENDBRANCH  25  28
ENDBRANCH  17  22
ENDBRANCH   4  14
BRANCH   9  34
ATOM     34  N   UNL     1     -39.714 147.446  -3.910  1.00  0.00    -0.373 N 
ATOM     35  C   UNL     1     -41.117 147.088  -4.045  1.00  0.00    +0.141 C 
ATOM     36  H   UNL     1     -39.124 146.886  -4.518  1.00  0.00    +0.161 HD
ENDBRANCH   9  34
TORSDOF 5
ENDMDL
MODEL 6
REMARK VINA RESULT:    -8.572      9.785     12.695
REMARK INTER + INTRA:         -11.335
REMARK INTER:                 -10.180
REMARK INTRA:                  -1.155
REMARK UNBOUND:                -0.257
REMARK SMILES CCn1c(=O)c(-c2cc(NC(=O)Nc3ccccc3)c(F)cc2Br)cc2cnc(NC)cc21
REMARK SMILES IDX 3 1 4 2 5 3 6 4 25 5 26 6 27 7 28 8 29 9 32 10 33 11 2 12
REMARK SMILES IDX 1 13 7 14 8 15 23 16 9 17 22 18 20 19 24 20 21 21 10 22
REMARK SMILES IDX 11 23 12 24 13 25 14 28 15 29 19 30 16 31 18 32 17 33 30 34
REMARK SMILES IDX 31 35
REMARK H PARENT 10 26 13 27 30 36
ROOT
ATOM      1  N   UNL     1     -36.135 145.992   1.893  1.00  0.00    -0.308 N 
ATOM      2  C   UNL     1     -36.782 146.659   2.937  1.00  0.00    +0.258 C 
ATOM      3  O   UNL     1     -36.893 146.192   4.071  1.00  0.00    -0.269 OA
ATOM      4  C   UNL     1     -37.365 148.009   2.637  1.00  0.00    +0.049 C 
ATOM      5  C   UNL     1     -37.312 148.519   1.397  1.00  0.00    +0.026 C 
ATOM      6  C   UNL     1     -36.683 147.768   0.321  1.00  0.00    +0.018 A 
ATOM      7  C   UNL     1     -36.635 148.268  -0.972  1.00  0.00    +0.123 A 
ATOM      8  N   UNL     1     -36.070 147.624  -2.017  1.00  0.00    -0.239 NA
ATOM      9  C   UNL     1     -35.528 146.414  -1.789  1.00  0.00    +0.127 A 
ATOM     10  C   UNL     1     -35.521 145.845  -0.514  1.00  0.00    +0.073 A 
ATOM     11  C   UNL     1     -36.104 146.523   0.563  1.00  0.00    +0.056 A 
ENDROOT
BRANCH   1  12
ATOM     12  C   UNL     1     -35.551 144.687   2.198  1.00  0.00    +0.122 C 
ATOM     13  C   UNL     1     -34.081 144.789   2.578  1.00  0.00    +0.028 C 
ENDBRANCH   1  12
BRANCH   4  14
ATOM     14  C   UNL     1     -38.005 148.794   3.711  1.00  0.00    +0.004 A 
ATOM     15  C   UNL     1     -37.222 149.740   4.401  1.00  0.00    +0.039 A 
ATOM     16  C   UNL     1     -39.358 148.636   4.060  1.00  0.00    +0.029 A 
ATOM     17  C   UNL     1     -37.776 150.519   5.419  1.00  0.00    +0.079 A 
ATOM     18  C   UNL     1     -39.922 149.421   5.065  1.00  0.00    +0.057 A 
ATOM     19  C   UNL     1     -39.131 150.353   5.726  1.00  0.00    +0.147 A 
ATOM     20 Br   UNL     1     -40.481 147.351   3.221  1.00  0.00    -0.050 Br
ATOM     21  F   UNL     1     -39.682 151.103   6.694  1.00  0.00    -0.205 F 
BRANCH  17  22
ATOM     22  N   UNL     1     -37.062 151.490   6.153  1.00  0.00    -0.305 N 
ATOM     23  C   UNL     1     -36.922 152.836   5.850  1.00  0.00    +0.323 C 
ATOM     24  O   UNL     1     -37.327 153.358   4.821  1.00  0.00    -0.248 OA
ATOM     25  N   UNL     1     -36.259 153.490   6.878  1.00  0.00    -0.308 N 
ATOM     26  H   UNL     1     -36.443 151.120   6.863  1.00  0.00    +0.171 HD
ATOM     27  H   UNL     1     -36.192 152.985   7.748  1.00  0.00    +0.171 HD
BRANCH  25  28
ATOM     28  C   UNL     1     -35.837 154.834   6.912  1.00  0.00    +0.042 A 
ATOM     29  C   UNL     1     -34.470 155.082   6.727  1.00  0.00    +0.026 A 
ATOM     30  C   UNL     1     -36.698 155.918   7.095  1.00  0.00    +0.026 A 
ATOM     31  C   UNL     1     -33.973 156.387   6.737  1.00  0.00    +0.002 A 
ATOM     32  C   UNL     1     -36.199 157.225   7.106  1.00  0.00    +0.002 A 
ATOM     33  C   UNL     1     -34.838 157.460   6.928  1.00  0.00    +0.000 A 
ENDBRANCH  25  28
ENDBRANCH  17  22
ENDBRANCH   4  14
BRANCH   9  34
ATOM     34  N   UNL     1     -34.906 145.702  -2.830  1.00  0.00    -0.373 N 
ATOM     35  C   UNL     1     -33.542 145.290  -2.540  1.00  0.00    +0.141 C 
ATOM     36  H   UNL     1     -34.958 146.249  -3.684  1.00  0.00    +0.161 HD
ENDBRANCH   9  34
TORSDOF 5
ENDMDL
MODEL 7
REMARK VINA RESULT:    -8.514     10.144     12.482
REMARK INTER + INTRA:         -11.260
REMARK INTER:                 -10.379
REMARK INTRA:                  -0.881
REMARK UNBOUND:                -0.257
REMARK SMILES CCn1c(=O)c(-c2cc(NC(=O)Nc3ccccc3)c(F)cc2Br)cc2cnc(NC)cc21
REMARK SMILES IDX 3 1 4 2 5 3 6 4 25 5 26 6 27 7 28 8 29 9 32 10 33 11 2 12
REMARK SMILES IDX 1 13 7 14 8 15 23 16 9 17 22 18 20 19 24 20 21 21 10 22
REMARK SMILES IDX 11 23 12 24 13 25 14 28 15 29 19 30 16 31 18 32 17 33 30 34
REMARK SMILES IDX 31 35
REMARK H PARENT 10 26 13 27 30 36
ROOT
ATOM      1  N   UNL     1     -36.149 148.128  -0.079  1.00  0.00    -0.308 N 
ATOM      2  C   UNL     1     -35.608 148.258   1.203  1.00  0.00    +0.258 C 
ATOM      3  O   UNL     1     -34.416 148.485   1.413  1.00  0.00    -0.269 OA
ATOM      4  C   UNL     1     -36.544 148.109   2.366  1.00  0.00    +0.049 C 
ATOM      5  C   UNL     1     -37.836 147.803   2.171  1.00  0.00    +0.026 C 
ATOM      6  C   UNL     1     -38.351 147.614   0.822  1.00  0.00    +0.018 A 
ATOM      7  C   UNL     1     -39.678 147.279   0.600  1.00  0.00    +0.123 A 
ATOM      8  N   UNL     1     -40.220 147.088  -0.623  1.00  0.00    -0.239 NA
ATOM      9  C   UNL     1     -39.416 147.221  -1.693  1.00  0.00    +0.127 A 
ATOM     10  C   UNL     1     -38.071 147.571  -1.558  1.00  0.00    +0.073 A 
ATOM     11  C   UNL     1     -37.520 147.773  -0.287  1.00  0.00    +0.056 A 
ENDROOT
BRANCH   1  12
ATOM     12  C   UNL     1     -35.234 148.296  -1.208  1.00  0.00    +0.122 C 
ATOM     13  C   UNL     1     -34.512 147.004  -1.561  1.00  0.00    +0.028 C 
ENDBRANCH   1  12
BRANCH   4  14
ATOM     14  C   UNL     1     -36.050 148.298   3.743  1.00  0.00    +0.004 A 
ATOM     15  C   UNL     1     -36.250 149.552   4.355  1.00  0.00    +0.039 A 
ATOM     16  C   UNL     1     -35.400 147.279   4.461  1.00  0.00    +0.029 A 
ATOM     17  C   UNL     1     -35.814 149.786   5.660  1.00  0.00    +0.079 A 
ATOM     18  C   UNL     1     -34.974 147.501   5.770  1.00  0.00    +0.057 A 
ATOM     19  C   UNL     1     -35.190 148.744   6.355  1.00  0.00    +0.147 A 
ATOM     20 Br   UNL     1     -35.040 145.573   3.703  1.00  0.00    -0.050 Br
ATOM     21  F   UNL     1     -34.775 148.949   7.615  1.00  0.00    -0.205 F 
BRANCH  17  22
ATOM     22  N   UNL     1     -35.980 151.009   6.346  1.00  0.00    -0.305 N 
ATOM     23  C   UNL     1     -35.464 152.247   5.993  1.00  0.00    +0.323 C 
ATOM     24  O   UNL     1     -34.690 152.432   5.064  1.00  0.00    -0.248 OA
ATOM     25  N   UNL     1     -35.952 153.227   6.843  1.00  0.00    -0.308 N 
ATOM     26  H   UNL     1     -36.353 150.925   7.283  1.00  0.00    +0.171 HD
ATOM     27  H   UNL     1     -36.746 152.964   7.406  1.00  0.00    +0.171 HD
BRANCH  25  28
ATOM     28  C   UNL     1     -35.597 154.591   6.879  1.00  0.00    +0.042 A 
ATOM     29  C   UNL     1     -36.642 155.524   6.917  1.00  0.00    +0.026 A 
ATOM     30  C   UNL     1     -34.280 155.054   6.900  1.00  0.00    +0.026 A 
ATOM     31  C   UNL     1     -36.374 156.894   6.963  1.00  0.00    +0.002 A 
ATOM     32  C   UNL     1     -34.012 156.427   6.945  1.00  0.00    +0.002 A 
ATOM     33  C   UNL     1     -35.058 157.346   6.977  1.00  0.00    +0.000 A 
ENDBRANCH  25  28
ENDBRANCH  17  22
ENDBRANCH   4  14
BRANCH   9  34
ATOM     34  N   UNL     1     -39.925 147.055  -2.994  1.00  0.00    -0.373 N 
ATOM     35  C   UNL     1     -40.867 145.956  -3.131  1.00  0.00    +0.141 C 
ATOM     36  H   UNL     1     -39.150 146.967  -3.644  1.00  0.00    +0.161 HD
ENDBRANCH   9  34
TORSDOF 5
ENDMDL
MODEL 8
REMARK VINA RESULT:    -8.445      5.335     12.555
REMARK INTER + INTRA:         -11.170
REMARK INTER:                 -11.674
REMARK INTRA:                   0.504
REMARK UNBOUND:                -0.257
REMARK SMILES CCn1c(=O)c(-c2cc(NC(=O)Nc3ccccc3)c(F)cc2Br)cc2cnc(NC)cc21
REMARK SMILES IDX 3 1 4 2 5 3 6 4 25 5 26 6 27 7 28 8 29 9 32 10 33 11 2 12
REMARK SMILES IDX 1 13 7 14 8 15 23 16 9 17 22 18 20 19 24 20 21 21 10 22
REMARK SMILES IDX 11 23 12 24 13 25 14 28 15 29 19 30 16 31 18 32 17 33 30 34
REMARK SMILES IDX 31 35
REMARK H PARENT 10 26 13 27 30 36
ROOT
ATOM      1  N   UNL     1     -36.228 150.651   7.336  1.00  0.00    -0.308 N 
ATOM      2  C   UNL     1     -36.051 152.014   7.081  1.00  0.00    +0.258 C 
ATOM      3  O   UNL     1     -35.605 152.805   7.913  1.00  0.00    -0.269 OA
ATOM      4  C   UNL     1     -36.431 152.517   5.719  1.00  0.00    +0.049 C 
ATOM      5  C   UNL     1     -36.974 151.692   4.811  1.00  0.00    +0.026 C 
ATOM      6  C   UNL     1     -37.201 150.291   5.134  1.00  0.00    +0.018 A 
ATOM      7  C   UNL     1     -37.778 149.426   4.216  1.00  0.00    +0.123 A 
ATOM      8  N   UNL     1     -38.019 148.117   4.451  1.00  0.00    -0.239 NA
ATOM      9  C   UNL     1     -37.685 147.624   5.657  1.00  0.00    +0.127 A 
ATOM     10  C   UNL     1     -37.085 148.424   6.632  1.00  0.00    +0.073 A 
ATOM     11  C   UNL     1     -36.835 149.777   6.378  1.00  0.00    +0.056 A 
ENDROOT
BRANCH   1  12
ATOM     12  C   UNL     1     -35.836 150.166   8.658  1.00  0.00    +0.122 C 
ATOM     13  C   UNL     1     -34.429 149.586   8.664  1.00  0.00    +0.028 C 
ENDBRANCH   1  12
BRANCH   4  14
ATOM     14  C   UNL     1     -36.208 153.931   5.364  1.00  0.00    +0.004 A 
ATOM     15  C   UNL     1     -37.315 154.692   4.935  1.00  0.00    +0.039 A 
ATOM     16  C   UNL     1     -34.945 154.543   5.445  1.00  0.00    +0.029 A 
ATOM     17  C   UNL     1     -37.167 156.038   4.596  1.00  0.00    +0.079 A 
ATOM     18  C   UNL     1     -34.792 155.891   5.123  1.00  0.00    +0.057 A 
ATOM     19  C   UNL     1     -35.900 156.622   4.710  1.00  0.00    +0.147 A 
ATOM     20 Br   UNL     1     -33.385 153.586   5.964  1.00  0.00    -0.050 Br
ATOM     21  F   UNL     1     -35.743 157.919   4.400  1.00  0.00    -0.205 F 
BRANCH  17  22
ATOM     22  N   UNL     1     -38.223 156.869   4.164  1.00  0.00    -0.305 N 
ATOM     23  C   UNL     1     -38.338 157.513   2.941  1.00  0.00    +0.323 C 
ATOM     24  O   UNL     1     -37.466 157.527   2.084  1.00  0.00    -0.248 OA
ATOM     25  N   UNL     1     -39.575 158.131   2.843  1.00  0.00    -0.308 N 
ATOM     26  H   UNL     1     -38.857 157.168   4.894  1.00  0.00    +0.171 HD
ATOM     27  H   UNL     1     -40.264 157.845   3.520  1.00  0.00    +0.171 HD
BRANCH  25  28
ATOM     28  C   UNL     1     -40.041 158.963   1.805  1.00  0.00    +0.042 A 
ATOM     29  C   UNL     1     -41.430 159.111   1.677  1.00  0.00    +0.026 A 
ATOM     30  C   UNL     1     -39.208 159.656   0.925  1.00  0.00    +0.026 A 
ATOM     31  C   UNL     1     -41.972 159.925   0.680  1.00  0.00    +0.002 A 
ATOM     32  C   UNL     1     -39.752 160.471  -0.073  1.00  0.00    +0.002 A 
ATOM     33  C   UNL     1     -41.132 160.605  -0.196  1.00  0.00    +0.000 A 
ENDBRANCH  25  28
ENDBRANCH  17  22
ENDBRANCH   4  14
BRANCH   9  34
ATOM     34  N   UNL     1     -37.890 146.266   5.956  1.00  0.00    -0.373 N 
ATOM     35  C   UNL     1     -37.756 145.937   7.366  1.00  0.00    +0.141 C 
ATOM     36  H   UNL     1     -37.273 145.702   5.379  1.00  0.00    +0.161 HD
ENDBRANCH   9  34
TORSDOF 5
ENDMDL
MODEL 9
REMARK VINA RESULT:    -8.322      8.651     12.897
REMARK INTER + INTRA:         -11.012
REMARK INTER:                  -9.933
REMARK INTRA:                  -1.079
REMARK UNBOUND:                -0.257
REMARK SMILES CCn1c(=O)c(-c2cc(NC(=O)Nc3ccccc3)c(F)cc2Br)cc2cnc(NC)cc21
REMARK SMILES IDX 3 1 4 2 5 3 6 4 25 5 26 6 27 7 28 8 29 9 32 10 33 11 2 12
REMARK SMILES IDX 1 13 7 14 8 15 23 16 9 17 22 18 20 19 24 20 21 21 10 22
REMARK SMILES IDX 11 23 12 24 13 25 14 28 15 29 19 30 16 31 18 32 17 33 30 34
REMARK SMILES IDX 31 35
REMARK H PARENT 10 26 13 27 30 36
ROOT
ATOM      1  N   UNL     1     -36.842 147.663   1.783  1.00  0.00    -0.308 N 
ATOM      2  C   UNL     1     -36.829 148.387   2.978  1.00  0.00    +0.258 C 
ATOM      3  O   UNL     1     -37.820 148.963   3.429  1.00  0.00    -0.269 OA
ATOM      4  C   UNL     1     -35.533 148.453   3.732  1.00  0.00    +0.049 C 
ATOM      5  C   UNL     1     -34.423 147.886   3.237  1.00  0.00    +0.026 C 
ATOM      6  C   UNL     1     -34.460 147.193   1.958  1.00  0.00    +0.018 A 
ATOM      7  C   UNL     1     -33.319 146.616   1.419  1.00  0.00    +0.123 A 
ATOM      8  N   UNL     1     -33.282 145.961   0.237  1.00  0.00    -0.239 NA
ATOM      9  C   UNL     1     -34.425 145.871  -0.465  1.00  0.00    +0.127 A 
ATOM     10  C   UNL     1     -35.621 146.411   0.012  1.00  0.00    +0.073 A 
ATOM     11  C   UNL     1     -35.650 147.083   1.240  1.00  0.00    +0.056 A 
ENDROOT
BRANCH   1  12
ATOM     12  C   UNL     1     -38.113 147.585   1.065  1.00  0.00    +0.122 C 
ATOM     13  C   UNL     1     -38.942 146.383   1.492  1.00  0.00    +0.028 C 
ENDBRANCH   1  12
BRANCH   4  14
ATOM     14  C   UNL     1     -35.468 149.146   5.033  1.00  0.00    +0.004 A 
ATOM     15  C   UNL     1     -35.168 150.523   5.039  1.00  0.00    +0.039 A 
ATOM     16  C   UNL     1     -35.702 148.489   6.253  1.00  0.00    +0.029 A 
ATOM     17  C   UNL     1     -35.103 151.234   6.238  1.00  0.00    +0.079 A 
ATOM     18  C   UNL     1     -35.654 149.196   7.455  1.00  0.00    +0.057 A 
ATOM     19  C   UNL     1     -35.363 150.555   7.434  1.00  0.00    +0.147 A 
ATOM     20 Br   UNL     1     -36.064 146.625   6.350  1.00  0.00    -0.050 Br
ATOM     21  F   UNL     1     -35.318 151.226   8.596  1.00  0.00    -0.205 F 
BRANCH  17  22
ATOM     22  N   UNL     1     -34.815 152.613   6.330  1.00  0.00    -0.305 N 
ATOM     23  C   UNL     1     -35.612 153.668   5.912  1.00  0.00    +0.323 C 
ATOM     24  O   UNL     1     -36.661 153.538   5.296  1.00  0.00    -0.248 OA
ATOM     25  N   UNL     1     -35.043 154.874   6.289  1.00  0.00    -0.308 N 
ATOM     26  H   UNL     1     -33.852 152.833   6.552  1.00  0.00    +0.171 HD
ATOM     27  H   UNL     1     -34.309 154.817   6.978  1.00  0.00    +0.171 HD
BRANCH  25  28
ATOM     28  C   UNL     1     -35.489 156.173   5.971  1.00  0.00    +0.042 A 
ATOM     29  C   UNL     1     -36.040 156.934   7.012  1.00  0.00    +0.026 A 
ATOM     30  C   UNL     1     -35.394 156.742   4.700  1.00  0.00    +0.026 A 
ATOM     31  C   UNL     1     -36.497 158.233   6.782  1.00  0.00    +0.002 A 
ATOM     32  C   UNL     1     -35.853 158.044   4.470  1.00  0.00    +0.002 A 
ATOM     33  C   UNL     1     -36.404 158.789   5.510  1.00  0.00    +0.000 A 
ENDBRANCH  25  28
ENDBRANCH  17  22
ENDBRANCH   4  14
BRANCH   9  34
ATOM     34  N   UNL     1     -34.457 145.184  -1.692  1.00  0.00    -0.373 N 
ATOM     35  C   UNL     1     -35.212 145.859  -2.736  1.00  0.00    +0.141 C 
ATOM     36  H   UNL     1     -34.797 144.240  -1.535  1.00  0.00    +0.161 HD
ENDBRANCH   9  34
TORSDOF 5
ENDMDL
MODEL 10
REMARK VINA RESULT:    -8.090      9.437     12.372
REMARK INTER + INTRA:         -10.712
REMARK INTER:                 -10.295
REMARK INTRA:                  -0.417
REMARK UNBOUND:                -0.257
REMARK SMILES CCn1c(=O)c(-c2cc(NC(=O)Nc3ccccc3)c(F)cc2Br)cc2cnc(NC)cc21
REMARK SMILES IDX 3 1 4 2 5 3 6 4 25 5 26 6 27 7 28 8 29 9 32 10 33 11 2 12
REMARK SMILES IDX 1 13 7 14 8 15 23 16 9 17 22 18 20 19 24 20 21 21 10 22
REMARK SMILES IDX 11 23 12 24 13 25 14 28 15 29 19 30 16 31 18 32 17 33 30 34
REMARK SMILES IDX 31 35
REMARK H PARENT 10 26 13 27 30 36
ROOT
ATOM      1  N   UNL     1     -37.256 147.784   0.392  1.00  0.00    -0.308 N 
ATOM      2  C   UNL     1     -38.001 148.294   1.458  1.00  0.00    +0.258 C 
ATOM      3  O   UNL     1     -39.191 148.598   1.367  1.00  0.00    -0.269 OA
ATOM      4  C   UNL     1     -37.295 148.475   2.770  1.00  0.00    +0.049 C 
ATOM      5  C   UNL     1     -35.985 148.209   2.886  1.00  0.00    +0.026 C 
ATOM      6  C   UNL     1     -35.227 147.737   1.736  1.00  0.00    +0.018 A 
ATOM      7  C   UNL     1     -33.868 147.475   1.829  1.00  0.00    +0.123 A 
ATOM      8  N   UNL     1     -33.105 147.037   0.803  1.00  0.00    -0.239 NA
ATOM      9  C   UNL     1     -33.702 146.854  -0.388  1.00  0.00    +0.127 A 
ATOM     10  C   UNL     1     -35.069 147.080  -0.563  1.00  0.00    +0.073 A 
ATOM     11  C   UNL     1     -35.852 147.528   0.507  1.00  0.00    +0.056 A 
ENDROOT
BRANCH   1  12
ATOM     12  C   UNL     1     -37.957 147.590  -0.877  1.00  0.00    +0.122 C 
ATOM     13  C   UNL     1     -38.530 146.187  -1.010  1.00  0.00    +0.028 C 
ENDBRANCH   1  12
BRANCH   4  14
ATOM     14  C   UNL     1     -38.040 148.949   3.952  1.00  0.00    +0.004 A 
ATOM     15  C   UNL     1     -37.824 150.271   4.389  1.00  0.00    +0.039 A 
ATOM     16  C   UNL     1     -38.955 148.138   4.646  1.00  0.00    +0.029 A 
ATOM     17  C   UNL     1     -38.508 150.778   5.496  1.00  0.00    +0.079 A 
ATOM     18  C   UNL     1     -39.654 148.642   5.742  1.00  0.00    +0.057 A 
ATOM     19  C   UNL     1     -39.429 149.951   6.149  1.00  0.00    +0.147 A 
ATOM     20 Br   UNL     1     -39.277 146.327   4.162  1.00  0.00    -0.050 Br
ATOM     21  F   UNL     1     -40.105 150.428   7.207  1.00  0.00    -0.205 F 
BRANCH  17  22
ATOM     22  N   UNL     1     -38.353 152.090   5.993  1.00  0.00    -0.305 N 
ATOM     23  C   UNL     1     -37.224 152.891   5.911  1.00  0.00    +0.323 C 
ATOM     24  O   UNL     1     -36.145 152.520   5.470  1.00  0.00    -0.248 OA
ATOM     25  N   UNL     1     -37.502 154.158   6.401  1.00  0.00    -0.308 N 
ATOM     26  H   UNL     1     -39.076 152.392   6.633  1.00  0.00    +0.171 HD
ATOM     27  H   UNL     1     -38.478 154.381   6.514  1.00  0.00    +0.171 HD
BRANCH  25  28
ATOM     28  C   UNL     1     -36.602 155.228   6.580  1.00  0.00    +0.042 A 
ATOM     29  C   UNL     1     -35.372 154.936   7.186  1.00  0.00    +0.026 A 
ATOM     30  C   UNL     1     -36.856 156.539   6.172  1.00  0.00    +0.026 A 
ATOM     31  C   UNL     1     -34.421 155.938   7.391  1.00  0.00    +0.002 A 
ATOM     32  C   UNL     1     -35.903 157.543   6.378  1.00  0.00    +0.002 A 
ATOM     33  C   UNL     1     -34.687 157.243   6.987  1.00  0.00    +0.000 A 
ENDBRANCH  25  28
ENDBRANCH  17  22
ENDBRANCH   4  14
BRANCH   9  34
ATOM     34  N   UNL     1     -32.967 146.380  -1.489  1.00  0.00    -0.373 N 
ATOM     35  C   UNL     1     -33.733 145.552  -2.407  1.00  0.00    +0.141 C 
ATOM     36  H   UNL     1     -32.139 145.899  -1.153  1.00  0.00    +0.161 HD
ENDBRANCH   9  34
TORSDOF 5
ENDMDL
