MODEL 1
REMARK VINA RESULT:    -9.865      0.000      0.000
REMARK INTER + INTRA:         -13.164
REMARK INTER:                 -12.460
REMARK INTRA:                  -0.704
REMARK UNBOUND:                -0.704
REMARK SMILES Cn1cc(-c2cc3c(N4CCN(c5ncc([C@@](C)(N)c6ccc(F)cc6)cn5)CC4)ncnn3c2)cn1
REMARK SMILES IDX 13 1 14 2 15 3 16 4 27 5 28 6 12 7 5 8 6 9 35 10 7 11 34 12
REMARK SMILES IDX 8 13 33 14 9 15 31 16 32 17 10 18 30 19 11 20 29 21 4 22
REMARK SMILES IDX 2 23 3 24 37 25 36 26 1 27 17 28 18 29 19 30 20 33 21 34
REMARK SMILES IDX 26 35 22 36 25 37 23 38 24 39
REMARK H PARENT 19 31 19 32
ROOT
ATOM      1  C   UNL     1      -7.881   3.066 -16.255  1.00  0.00    +0.225 A 
ATOM      2  N   UNL     1      -7.444   4.037 -17.069  1.00  0.00    -0.221 NA
ATOM      3  C   UNL     1      -8.263   5.084 -17.301  1.00  0.00    +0.122 A 
ATOM      4  C   UNL     1      -9.525   5.229 -16.757  1.00  0.00    +0.013 A 
ATOM      5  C   UNL     1      -9.878   4.179 -15.938  1.00  0.00    +0.122 A 
ATOM      6  N   UNL     1      -9.090   3.113 -15.677  1.00  0.00    -0.221 NA
ENDROOT
BRANCH   1   7
ATOM      7  N   UNL     1      -7.049   2.001 -15.982  1.00  0.00    -0.337 N 
ATOM      8  C   UNL     1      -4.625  -4.506 -14.977  1.00  0.00    +0.005 A 
ATOM      9  C   UNL     1      -5.003  -3.170 -15.269  1.00  0.00    +0.042 A 
ATOM     10  C   UNL     1      -4.109  -4.508 -13.700  1.00  0.00    +0.122 A 
ATOM     11  C   UNL     1      -4.728  -2.406 -14.148  1.00  0.00    +0.108 A 
ATOM     12  N   UNL     1      -4.150  -3.226 -13.223  1.00  0.00    -0.235 N 
ATOM     13  C   UNL     1      -4.873  -1.014 -13.816  1.00  0.00    +0.156 C 
ATOM     14  N   UNL     1      -3.680  -2.828 -12.033  1.00  0.00    -0.156 NA
ATOM     15  N   UNL     1      -5.479  -0.061 -14.626  1.00  0.00    -0.351 N 
ATOM     16  N   UNL     1      -4.383  -0.637 -12.667  1.00  0.00    -0.215 NA
ATOM     17  C   UNL     1      -3.812  -1.557 -11.826  1.00  0.00    +0.247 C 
ATOM     18  C   UNL     1      -5.304   1.372 -14.322  1.00  0.00    +0.139 C 
ATOM     19  C   UNL     1      -6.619  -0.387 -15.501  1.00  0.00    +0.139 C 
ATOM     20  C   UNL     1      -5.688   2.274 -15.512  1.00  0.00    +0.141 C 
ATOM     21  C   UNL     1      -7.668   0.743 -15.569  1.00  0.00    +0.141 C 
BRANCH   8  22
ATOM     22  C   UNL     1      -4.762  -5.633 -15.886  1.00  0.00    +0.021 A 
ATOM     23  N   UNL     1      -4.495  -7.151 -17.439  1.00  0.00    -0.275 N 
ATOM     24  C   UNL     1      -3.910  -6.049 -16.884  1.00  0.00    +0.117 A 
ATOM     25  N   UNL     1      -5.671  -7.479 -16.873  1.00  0.00    -0.181 NA
ATOM     26  C   UNL     1      -5.831  -6.550 -15.923  1.00  0.00    +0.143 A 
ATOM     27  C   UNL     1      -3.984  -7.950 -18.526  1.00  0.00    +0.173 C 
ENDBRANCH   8  22
ENDBRANCH   1   7
BRANCH   4  28
ATOM     28  C   UNL     1     -10.402   6.437 -17.069  1.00  0.00    +0.067 C 
ATOM     29  C   UNL     1     -11.868   6.002 -16.820  1.00  0.00    +0.038 C 
BRANCH  28  30
ATOM     30  N   UNL     1     -10.188   7.569 -16.150  1.00  0.00    -0.318 NA
ATOM     31  H   UNL     1     -10.717   7.435 -15.293  1.00  0.00    +0.120 HD
ATOM     32  H   UNL     1     -10.476   8.445 -16.577  1.00  0.00    +0.120 HD
ENDBRANCH  28  30
BRANCH  28  33
ATOM     33  C   UNL     1     -10.143   6.966 -18.497  1.00  0.00    -0.024 A 
ATOM     34  C   UNL     1     -10.527   6.259 -19.654  1.00  0.00    +0.009 A 
ATOM     35  C   UNL     1      -9.522   8.225 -18.678  1.00  0.00    +0.009 A 
ATOM     36  C   UNL     1     -10.281   6.775 -20.930  1.00  0.00    +0.039 A 
ATOM     37  C   UNL     1      -9.277   8.738 -19.954  1.00  0.00    +0.039 A 
ATOM     38  C   UNL     1      -9.658   8.006 -21.069  1.00  0.00    +0.123 A 
ATOM     39  F   UNL     1      -9.425   8.496 -22.293  1.00  0.00    -0.207 F 
ENDBRANCH  28  33
ENDBRANCH   4  28
TORSDOF 5
ENDMDL
MODEL 2
REMARK VINA RESULT:    -9.762      3.555     11.834
REMARK INTER + INTRA:         -13.033
REMARK INTER:                 -12.189
REMARK INTRA:                  -0.845
REMARK UNBOUND:                -0.704
REMARK SMILES Cn1cc(-c2cc3c(N4CCN(c5ncc([C@@](C)(N)c6ccc(F)cc6)cn5)CC4)ncnn3c2)cn1
REMARK SMILES IDX 13 1 14 2 15 3 16 4 27 5 28 6 12 7 5 8 6 9 35 10 7 11 34 12
REMARK SMILES IDX 8 13 33 14 9 15 31 16 32 17 10 18 30 19 11 20 29 21 4 22
REMARK SMILES IDX 2 23 3 24 37 25 36 26 1 27 17 28 18 29 19 30 20 33 21 34
REMARK SMILES IDX 26 35 22 36 25 37 23 38 24 39
REMARK H PARENT 19 31 19 32
ROOT
ATOM      1  C   UNL     1      -5.954  -0.981 -15.802  1.00  0.00    +0.225 A 
ATOM      2  N   UNL     1      -4.994  -1.124 -16.726  1.00  0.00    -0.221 NA
ATOM      3  C   UNL     1      -4.051  -2.066 -16.515  1.00  0.00    +0.122 A 
ATOM      4  C   UNL     1      -4.002  -2.898 -15.413  1.00  0.00    +0.013 A 
ATOM      5  C   UNL     1      -5.031  -2.668 -14.526  1.00  0.00    +0.122 A 
ATOM      6  N   UNL     1      -5.996  -1.739 -14.696  1.00  0.00    -0.221 NA
ENDROOT
BRANCH   1   7
ATOM      7  N   UNL     1      -6.944  -0.044 -16.010  1.00  0.00    -0.337 N 
ATOM      8  C   UNL     1     -10.277   6.017 -17.188  1.00  0.00    +0.005 A 
ATOM      9  C   UNL     1      -9.681   4.735 -17.058  1.00  0.00    +0.042 A 
ATOM     10  C   UNL     1     -11.147   6.164 -16.131  1.00  0.00    +0.122 A 
ATOM     11  C   UNL     1     -10.190   4.155 -15.911  1.00  0.00    +0.108 A 
ATOM     12  N   UNL     1     -11.106   5.018 -15.384  1.00  0.00    -0.235 N 
ATOM     13  C   UNL     1      -9.994   2.894 -15.246  1.00  0.00    +0.156 C 
ATOM     14  N   UNL     1     -11.862   4.770 -14.306  1.00  0.00    -0.156 NA
ATOM     15  N   UNL     1      -9.070   1.928 -15.627  1.00  0.00    -0.351 N 
ATOM     16  N   UNL     1     -10.759   2.655 -14.216  1.00  0.00    -0.215 NA
ATOM     17  C   UNL     1     -11.655   3.601 -13.790  1.00  0.00    +0.247 C 
ATOM     18  C   UNL     1      -9.165   0.567 -15.065  1.00  0.00    +0.139 C 
ATOM     19  C   UNL     1      -7.765   2.281 -16.214  1.00  0.00    +0.139 C 
ATOM     20  C   UNL     1      -8.343  -0.458 -15.874  1.00  0.00    +0.141 C 
ATOM     21  C   UNL     1      -6.623   1.356 -15.741  1.00  0.00    +0.141 C 
BRANCH   8  22
ATOM     22  C   UNL     1     -10.003   6.964 -18.257  1.00  0.00    +0.021 A 
ATOM     23  N   UNL     1      -9.370   8.673 -19.467  1.00  0.00    -0.275 N 
ATOM     24  C   UNL     1      -9.375   8.187 -18.191  1.00  0.00    +0.117 A 
ATOM     25  N   UNL     1      -9.956   7.853 -20.359  1.00  0.00    -0.181 NA
ATOM     26  C   UNL     1     -10.341   6.809 -19.616  1.00  0.00    +0.143 A 
ATOM     27  C   UNL     1      -8.819   9.929 -19.915  1.00  0.00    +0.173 C 
ENDBRANCH   8  22
ENDBRANCH   1   7
BRANCH   4  28
ATOM     28  C   UNL     1      -2.901  -3.937 -15.236  1.00  0.00    +0.067 C 
ATOM     29  C   UNL     1      -1.553  -3.192 -15.406  1.00  0.00    +0.038 C 
BRANCH  28  30
ATOM     30  N   UNL     1      -2.844  -4.506 -13.879  1.00  0.00    -0.318 NA
ATOM     31  H   UNL     1      -1.899  -4.448 -13.509  1.00  0.00    +0.120 HD
ATOM     32  H   UNL     1      -3.134  -5.480 -13.878  1.00  0.00    +0.120 HD
ENDBRANCH  28  30
BRANCH  28  33
ATOM     33  C   UNL     1      -3.085  -5.122 -16.211  1.00  0.00    -0.024 A 
ATOM     34  C   UNL     1      -4.229  -5.944 -16.205  1.00  0.00    +0.009 A 
ATOM     35  C   UNL     1      -2.089  -5.396 -17.178  1.00  0.00    +0.009 A 
ATOM     36  C   UNL     1      -4.361  -7.003 -17.109  1.00  0.00    +0.039 A 
ATOM     37  C   UNL     1      -2.222  -6.455 -18.079  1.00  0.00    +0.039 A 
ATOM     38  C   UNL     1      -3.357  -7.250 -18.034  1.00  0.00    +0.123 A 
ATOM     39  F   UNL     1      -3.488  -8.265 -18.897  1.00  0.00    -0.207 F 
ENDBRANCH  28  33
ENDBRANCH   4  28
TORSDOF 5
ENDMDL
MODEL 3
REMARK VINA RESULT:    -9.440      7.055     11.600
REMARK INTER + INTRA:         -12.627
REMARK INTER:                 -11.872
REMARK INTRA:                  -0.755
REMARK UNBOUND:                -0.704
REMARK SMILES Cn1cc(-c2cc3c(N4CCN(c5ncc([C@@](C)(N)c6ccc(F)cc6)cn5)CC4)ncnn3c2)cn1
REMARK SMILES IDX 13 1 14 2 15 3 16 4 27 5 28 6 12 7 5 8 6 9 35 10 7 11 34 12
REMARK SMILES IDX 8 13 33 14 9 15 31 16 32 17 10 18 30 19 11 20 29 21 4 22
REMARK SMILES IDX 2 23 3 24 37 25 36 26 1 27 17 28 18 29 19 30 20 33 21 34
REMARK SMILES IDX 26 35 22 36 25 37 23 38 24 39
REMARK H PARENT 19 31 19 32
ROOT
ATOM      1  C   UNL     1     -10.418  -1.692 -11.565  1.00  0.00    +0.225 A 
ATOM      2  N   UNL     1     -11.096  -2.701 -12.131  1.00  0.00    -0.221 NA
ATOM      3  C   UNL     1     -11.799  -3.521 -11.322  1.00  0.00    +0.122 A 
ATOM      4  C   UNL     1     -11.872  -3.396  -9.948  1.00  0.00    +0.013 A 
ATOM      5  C   UNL     1     -11.142  -2.332  -9.468  1.00  0.00    +0.122 A 
ATOM      6  N   UNL     1     -10.425  -1.485 -10.240  1.00  0.00    -0.221 NA
ENDROOT
BRANCH   1   7
ATOM      7  N   UNL     1      -9.715  -0.824 -12.374  1.00  0.00    -0.337 N 
ATOM      8  C   UNL     1      -8.104   3.922 -17.284  1.00  0.00    +0.005 A 
ATOM      9  C   UNL     1      -8.356   3.044 -16.197  1.00  0.00    +0.042 A 
ATOM     10  C   UNL     1      -7.161   3.313 -18.081  1.00  0.00    +0.122 A 
ATOM     11  C   UNL     1      -7.576   1.917 -16.384  1.00  0.00    +0.108 A 
ATOM     12  N   UNL     1      -6.829   2.115 -17.509  1.00  0.00    -0.235 N 
ATOM     13  C   UNL     1      -7.377   0.696 -15.651  1.00  0.00    +0.156 C 
ATOM     14  N   UNL     1      -5.900   1.268 -17.971  1.00  0.00    -0.156 NA
ATOM     15  N   UNL     1      -8.087   0.324 -14.516  1.00  0.00    -0.351 N 
ATOM     16  N   UNL     1      -6.448  -0.104 -16.096  1.00  0.00    -0.215 NA
ATOM     17  C   UNL     1      -5.753   0.213 -17.235  1.00  0.00    +0.247 C 
ATOM     18  C   UNL     1      -7.598  -0.792 -13.683  1.00  0.00    +0.139 C 
ATOM     19  C   UNL     1      -9.505   0.680 -14.326  1.00  0.00    +0.139 C 
ATOM     20  C   UNL     1      -8.252  -0.811 -12.286  1.00  0.00    +0.141 C 
ATOM     21  C   UNL     1     -10.321  -0.439 -13.647  1.00  0.00    +0.141 C 
BRANCH   8  22
ATOM     22  C   UNL     1      -8.734   5.218 -17.477  1.00  0.00    +0.021 A 
ATOM     23  N   UNL     1      -9.353   7.191 -18.192  1.00  0.00    -0.275 N 
ATOM     24  C   UNL     1      -8.504   6.155 -18.458  1.00  0.00    +0.117 A 
ATOM     25  N   UNL     1     -10.118   6.995 -17.102  1.00  0.00    -0.181 NA
ATOM     26  C   UNL     1      -9.738   5.787 -16.668  1.00  0.00    +0.143 A 
ATOM     27  C   UNL     1      -9.490   8.415 -18.943  1.00  0.00    +0.173 C 
ENDBRANCH   8  22
ENDBRANCH   1   7
BRANCH   4  28
ATOM     28  C   UNL     1     -12.683  -4.366  -9.094  1.00  0.00    +0.067 C 
ATOM     29  C   UNL     1     -12.867  -5.654  -9.936  1.00  0.00    +0.038 C 
BRANCH  28  30
ATOM     30  N   UNL     1     -11.975  -4.811  -7.882  1.00  0.00    -0.318 NA
ATOM     31  H   UNL     1     -12.056  -5.818  -7.772  1.00  0.00    +0.120 HD
ATOM     32  H   UNL     1     -12.354  -4.362  -7.052  1.00  0.00    +0.120 HD
ENDBRANCH  28  30
BRANCH  28  33
ATOM     33  C   UNL     1     -14.012  -3.730  -8.629  1.00  0.00    -0.024 A 
ATOM     34  C   UNL     1     -14.741  -2.821  -9.421  1.00  0.00    +0.009 A 
ATOM     35  C   UNL     1     -14.556  -4.083  -7.372  1.00  0.00    +0.009 A 
ATOM     36  C   UNL     1     -15.944  -2.273  -8.967  1.00  0.00    +0.039 A 
ATOM     37  C   UNL     1     -15.758  -3.533  -6.920  1.00  0.00    +0.039 A 
ATOM     38  C   UNL     1     -16.440  -2.631  -7.722  1.00  0.00    +0.123 A 
ATOM     39  F   UNL     1     -17.593  -2.103  -7.292  1.00  0.00    -0.207 F 
ENDBRANCH  28  33
ENDBRANCH   4  28
TORSDOF 5
ENDMDL
MODEL 4
REMARK VINA RESULT:    -9.363      5.579      9.958
REMARK INTER + INTRA:         -12.529
REMARK INTER:                 -11.760
REMARK INTRA:                  -0.769
REMARK UNBOUND:                -0.704
REMARK SMILES Cn1cc(-c2cc3c(N4CCN(c5ncc([C@@](C)(N)c6ccc(F)cc6)cn5)CC4)ncnn3c2)cn1
REMARK SMILES IDX 13 1 14 2 15 3 16 4 27 5 28 6 12 7 5 8 6 9 35 10 7 11 34 12
REMARK SMILES IDX 8 13 33 14 9 15 31 16 32 17 10 18 30 19 11 20 29 21 4 22
REMARK SMILES IDX 2 23 3 24 37 25 36 26 1 27 17 28 18 29 19 30 20 33 21 34
REMARK SMILES IDX 26 35 22 36 25 37 23 38 24 39
REMARK H PARENT 19 31 19 32
ROOT
ATOM      1  C   UNL     1      -5.856   0.658 -15.001  1.00  0.00    +0.225 A 
ATOM      2  N   UNL     1      -5.545  -0.644 -14.926  1.00  0.00    -0.221 NA
ATOM      3  C   UNL     1      -4.425  -1.063 -15.552  1.00  0.00    +0.122 A 
ATOM      4  C   UNL     1      -3.572  -0.244 -16.267  1.00  0.00    +0.013 A 
ATOM      5  C   UNL     1      -3.982   1.071 -16.284  1.00  0.00    +0.122 A 
ATOM      6  N   UNL     1      -5.092   1.534 -15.670  1.00  0.00    -0.221 NA
ENDROOT
BRANCH   1   7
ATOM      7  N   UNL     1      -6.980   1.113 -14.345  1.00  0.00    -0.337 N 
ATOM      8  C   UNL     1     -13.236   1.362 -11.179  1.00  0.00    +0.005 A 
ATOM      9  C   UNL     1     -11.918   1.381 -11.704  1.00  0.00    +0.042 A 
ATOM     10  C   UNL     1     -13.963   2.296 -11.883  1.00  0.00    +0.122 A 
ATOM     11  C   UNL     1     -11.893   2.309 -12.730  1.00  0.00    +0.108 A 
ATOM     12  N   UNL     1     -13.129   2.882 -12.798  1.00  0.00    -0.235 N 
ATOM     13  C   UNL     1     -10.880   2.786 -13.633  1.00  0.00    +0.156 C 
ATOM     14  N   UNL     1     -13.468   3.879 -13.625  1.00  0.00    -0.156 NA
ATOM     15  N   UNL     1      -9.589   2.280 -13.721  1.00  0.00    -0.351 N 
ATOM     16  N   UNL     1     -11.216   3.778 -14.411  1.00  0.00    -0.215 NA
ATOM     17  C   UNL     1     -12.492   4.278 -14.377  1.00  0.00    +0.247 C 
ATOM     18  C   UNL     1      -8.558   3.035 -14.459  1.00  0.00    +0.139 C 
ATOM     19  C   UNL     1      -9.290   0.853 -13.500  1.00  0.00    +0.139 C 
ATOM     20  C   UNL     1      -7.130   2.554 -14.126  1.00  0.00    +0.141 C 
ATOM     21  C   UNL     1      -8.199   0.313 -14.447  1.00  0.00    +0.141 C 
BRANCH   8  22
ATOM     22  C   UNL     1     -13.693   0.511 -10.092  1.00  0.00    +0.021 A 
ATOM     23  N   UNL     1     -14.746  -0.381  -8.394  1.00  0.00    -0.275 N 
ATOM     24  C   UNL     1     -14.738   0.708  -9.218  1.00  0.00    +0.117 A 
ATOM     25  N   UNL     1     -13.776  -1.273  -8.670  1.00  0.00    -0.181 NA
ATOM     26  C   UNL     1     -13.135  -0.725  -9.709  1.00  0.00    +0.143 A 
ATOM     27  C   UNL     1     -15.660  -0.642  -7.309  1.00  0.00    +0.173 C 
ENDBRANCH   8  22
ENDBRANCH   1   7
BRANCH   4  28
ATOM     28  C   UNL     1      -2.325  -0.788 -16.957  1.00  0.00    +0.067 C 
ATOM     29  C   UNL     1      -1.170  -0.696 -15.928  1.00  0.00    +0.038 C 
BRANCH  28  30
ATOM     30  N   UNL     1      -2.416  -2.221 -17.288  1.00  0.00    -0.318 NA
ATOM     31  H   UNL     1      -1.488  -2.621 -17.394  1.00  0.00    +0.120 HD
ATOM     32  H   UNL     1      -2.934  -2.364 -18.150  1.00  0.00    +0.120 HD
ENDBRANCH  28  30
BRANCH  28  33
ATOM     33  C   UNL     1      -2.042  -0.041 -18.279  1.00  0.00    -0.024 A 
ATOM     34  C   UNL     1      -0.915   0.784 -18.463  1.00  0.00    +0.009 A 
ATOM     35  C   UNL     1      -2.923  -0.198 -19.376  1.00  0.00    +0.009 A 
ATOM     36  C   UNL     1      -0.691   1.438 -19.678  1.00  0.00    +0.039 A 
ATOM     37  C   UNL     1      -2.697   0.458 -20.588  1.00  0.00    +0.039 A 
ATOM     38  C   UNL     1      -1.583   1.272 -20.727  1.00  0.00    +0.123 A 
ATOM     39  F   UNL     1      -1.363   1.900 -21.889  1.00  0.00    -0.207 F 
ENDBRANCH  28  33
ENDBRANCH   4  28
TORSDOF 5
ENDMDL
MODEL 5
REMARK VINA RESULT:    -9.055      6.686     11.889
REMARK INTER + INTRA:         -12.141
REMARK INTER:                 -11.380
REMARK INTRA:                  -0.761
REMARK UNBOUND:                -0.704
REMARK SMILES Cn1cc(-c2cc3c(N4CCN(c5ncc([C@@](C)(N)c6ccc(F)cc6)cn5)CC4)ncnn3c2)cn1
REMARK SMILES IDX 13 1 14 2 15 3 16 4 27 5 28 6 12 7 5 8 6 9 35 10 7 11 34 12
REMARK SMILES IDX 8 13 33 14 9 15 31 16 32 17 10 18 30 19 11 20 29 21 4 22
REMARK SMILES IDX 2 23 3 24 37 25 36 26 1 27 17 28 18 29 19 30 20 33 21 34
REMARK SMILES IDX 26 35 22 36 25 37 23 38 24 39
REMARK H PARENT 19 31 19 32
ROOT
ATOM      1  C   UNL     1     -10.882  -0.683 -11.849  1.00  0.00    +0.225 A 
ATOM      2  N   UNL     1     -11.575  -0.096 -10.863  1.00  0.00    -0.221 NA
ATOM      3  C   UNL     1     -12.295  -0.888 -10.040  1.00  0.00    +0.122 A 
ATOM      4  C   UNL     1     -12.369  -2.264 -10.140  1.00  0.00    +0.013 A 
ATOM      5  C   UNL     1     -11.623  -2.765 -11.184  1.00  0.00    +0.122 A 
ATOM      6  N   UNL     1     -10.888  -2.011 -12.030  1.00  0.00    -0.221 NA
ENDROOT
BRANCH   1   7
ATOM      7  N   UNL     1     -10.117   0.104 -12.684  1.00  0.00    -0.337 N 
ATOM      8  C   UNL     1      -8.167   4.632 -17.676  1.00  0.00    +0.005 A 
ATOM      9  C   UNL     1      -8.477   3.791 -16.576  1.00  0.00    +0.042 A 
ATOM     10  C   UNL     1      -7.314   3.926 -18.494  1.00  0.00    +0.122 A 
ATOM     11  C   UNL     1      -7.822   2.589 -16.774  1.00  0.00    +0.108 A 
ATOM     12  N   UNL     1      -7.091   2.703 -17.921  1.00  0.00    -0.235 N 
ATOM     13  C   UNL     1      -7.728   1.358 -16.037  1.00  0.00    +0.156 C 
ATOM     14  N   UNL     1      -6.266   1.763 -18.401  1.00  0.00    -0.156 NA
ATOM     15  N   UNL     1      -8.440   1.067 -14.879  1.00  0.00    -0.351 N 
ATOM     16  N   UNL     1      -6.899   0.464 -16.501  1.00  0.00    -0.215 NA
ATOM     17  C   UNL     1      -6.208   0.703 -17.660  1.00  0.00    +0.247 C 
ATOM     18  C   UNL     1      -8.045  -0.088 -14.051  1.00  0.00    +0.139 C 
ATOM     19  C   UNL     1      -9.809   1.568 -14.654  1.00  0.00    +0.139 C 
ATOM     20  C   UNL     1      -8.659  -0.032 -12.637  1.00  0.00    +0.141 C 
ATOM     21  C   UNL     1     -10.716   0.542 -13.944  1.00  0.00    +0.141 C 
BRANCH   8  22
ATOM     22  C   UNL     1      -8.666   5.985 -17.864  1.00  0.00    +0.021 A 
ATOM     23  N   UNL     1      -9.180   7.971 -18.624  1.00  0.00    -0.275 N 
ATOM     24  C   UNL     1      -8.529   6.816 -18.952  1.00  0.00    +0.117 A 
ATOM     25  N   UNL     1      -9.729   7.951 -17.396  1.00  0.00    -0.181 NA
ATOM     26  C   UNL     1      -9.414   6.735 -16.934  1.00  0.00    +0.143 A 
ATOM     27  C   UNL     1      -9.319   9.151 -19.443  1.00  0.00    +0.173 C 
ENDBRANCH   8  22
ENDBRANCH   1   7
BRANCH   4  28
ATOM     28  C   UNL     1     -13.209  -3.097  -9.178  1.00  0.00    +0.067 C 
ATOM     29  C   UNL     1     -13.315  -2.286  -7.861  1.00  0.00    +0.038 C 
BRANCH  28  30
ATOM     30  N   UNL     1     -14.603  -3.273  -9.619  1.00  0.00    -0.318 NA
ATOM     31  H   UNL     1     -15.062  -3.993  -9.068  1.00  0.00    +0.120 HD
ATOM     32  H   UNL     1     -14.645  -3.537 -10.600  1.00  0.00    +0.120 HD
ENDBRANCH  28  30
BRANCH  28  33
ATOM     33  C   UNL     1     -12.616  -4.511  -8.992  1.00  0.00    -0.024 A 
ATOM     34  C   UNL     1     -13.106  -5.640  -9.677  1.00  0.00    +0.009 A 
ATOM     35  C   UNL     1     -11.515  -4.701  -8.124  1.00  0.00    +0.009 A 
ATOM     36  C   UNL     1     -12.537  -6.903  -9.487  1.00  0.00    +0.039 A 
ATOM     37  C   UNL     1     -10.949  -5.964  -7.934  1.00  0.00    +0.039 A 
ATOM     38  C   UNL     1     -11.467  -7.054  -8.617  1.00  0.00    +0.123 A 
ATOM     39  F   UNL     1     -10.925  -8.266  -8.438  1.00  0.00    -0.207 F 
ENDBRANCH  28  33
ENDBRANCH   4  28
TORSDOF 5
ENDMDL
MODEL 6
REMARK VINA RESULT:    -9.004      2.235      2.807
REMARK INTER + INTRA:         -12.077
REMARK INTER:                 -11.419
REMARK INTRA:                  -0.658
REMARK UNBOUND:                -0.704
REMARK SMILES Cn1cc(-c2cc3c(N4CCN(c5ncc([C@@](C)(N)c6ccc(F)cc6)cn5)CC4)ncnn3c2)cn1
REMARK SMILES IDX 13 1 14 2 15 3 16 4 27 5 28 6 12 7 5 8 6 9 35 10 7 11 34 12
REMARK SMILES IDX 8 13 33 14 9 15 31 16 32 17 10 18 30 19 11 20 29 21 4 22
REMARK SMILES IDX 2 23 3 24 37 25 36 26 1 27 17 28 18 29 19 30 20 33 21 34
REMARK SMILES IDX 26 35 22 36 25 37 23 38 24 39
REMARK H PARENT 19 31 19 32
ROOT
ATOM      1  C   UNL     1      -8.187   2.662 -16.578  1.00  0.00    +0.225 A 
ATOM      2  N   UNL     1      -7.714   3.612 -17.396  1.00  0.00    -0.221 NA
ATOM      3  C   UNL     1      -8.420   4.757 -17.509  1.00  0.00    +0.122 A 
ATOM      4  C   UNL     1      -9.599   5.022 -16.840  1.00  0.00    +0.013 A 
ATOM      5  C   UNL     1      -9.998   3.983 -16.028  1.00  0.00    +0.122 A 
ATOM      6  N   UNL     1      -9.323   2.822 -15.884  1.00  0.00    -0.221 NA
ENDROOT
BRANCH   1   7
ATOM      7  N   UNL     1      -7.468   1.495 -16.426  1.00  0.00    -0.337 N 
ATOM      8  C   UNL     1      -4.186  -4.016 -13.581  1.00  0.00    +0.005 A 
ATOM      9  C   UNL     1      -4.919  -2.996 -14.243  1.00  0.00    +0.042 A 
ATOM     10  C   UNL     1      -2.893  -3.948 -14.047  1.00  0.00    +0.122 A 
ATOM     11  C   UNL     1      -4.038  -2.323 -15.071  1.00  0.00    +0.108 A 
ATOM     12  N   UNL     1      -2.825  -2.938 -14.969  1.00  0.00    -0.235 N 
ATOM     13  C   UNL     1      -4.158  -1.219 -15.985  1.00  0.00    +0.156 C 
ATOM     14  N   UNL     1      -1.738  -2.612 -15.680  1.00  0.00    -0.156 NA
ATOM     15  N   UNL     1      -5.307  -0.460 -16.171  1.00  0.00    -0.351 N 
ATOM     16  N   UNL     1      -3.099  -0.933 -16.692  1.00  0.00    -0.215 NA
ATOM     17  C   UNL     1      -1.937  -1.636 -16.507  1.00  0.00    +0.247 C 
ATOM     18  C   UNL     1      -5.406   0.440 -17.337  1.00  0.00    +0.139 C 
ATOM     19  C   UNL     1      -6.243  -0.172 -15.069  1.00  0.00    +0.139 C 
ATOM     20  C   UNL     1      -6.857   0.886 -17.610  1.00  0.00    +0.141 C 
ATOM     21  C   UNL     1      -6.828   1.254 -15.134  1.00  0.00    +0.141 C 
BRANCH   8  22
ATOM     22  C   UNL     1      -4.737  -4.947 -12.610  1.00  0.00    +0.021 A 
ATOM     23  N   UNL     1      -5.314  -6.712 -11.452  1.00  0.00    -0.275 N 
ATOM     24  C   UNL     1      -4.613  -6.316 -12.555  1.00  0.00    +0.117 A 
ATOM     25  N   UNL     1      -5.890  -5.694 -10.786  1.00  0.00    -0.181 NA
ATOM     26  C   UNL     1      -5.535  -4.616 -11.496  1.00  0.00    +0.143 A 
ATOM     27  C   UNL     1      -5.481  -8.060 -10.967  1.00  0.00    +0.173 C 
ENDBRANCH   8  22
ENDBRANCH   1   7
BRANCH   4  28
ATOM     28  C   UNL     1     -10.349   6.338 -17.021  1.00  0.00    +0.067 C 
ATOM     29  C   UNL     1     -11.837   6.051 -16.700  1.00  0.00    +0.038 C 
BRANCH  28  30
ATOM     30  N   UNL     1      -9.952   7.376 -16.055  1.00  0.00    -0.318 NA
ATOM     31  H   UNL     1      -9.079   7.811 -16.339  1.00  0.00    +0.120 HD
ATOM     32  H   UNL     1      -9.834   6.984 -15.125  1.00  0.00    +0.120 HD
ENDBRANCH  28  30
BRANCH  28  33
ATOM     33  C   UNL     1     -10.119   6.926 -18.431  1.00  0.00    -0.024 A 
ATOM     34  C   UNL     1     -10.538   6.276 -19.608  1.00  0.00    +0.009 A 
ATOM     35  C   UNL     1      -9.488   8.185 -18.571  1.00  0.00    +0.009 A 
ATOM     36  C   UNL     1     -10.317   6.845 -20.866  1.00  0.00    +0.039 A 
ATOM     37  C   UNL     1      -9.267   8.752 -19.829  1.00  0.00    +0.039 A 
ATOM     38  C   UNL     1      -9.683   8.074 -20.965  1.00  0.00    +0.123 A 
ATOM     39  F   UNL     1      -9.474   8.616 -22.172  1.00  0.00    -0.207 F 
ENDBRANCH  28  33
ENDBRANCH   4  28
TORSDOF 5
ENDMDL
MODEL 7
REMARK VINA RESULT:    -8.867      8.268     10.417
REMARK INTER + INTRA:         -11.904
REMARK INTER:                 -11.600
REMARK INTRA:                  -0.303
REMARK UNBOUND:                -0.704
REMARK SMILES Cn1cc(-c2cc3c(N4CCN(c5ncc([C@@](C)(N)c6ccc(F)cc6)cn5)CC4)ncnn3c2)cn1
REMARK SMILES IDX 13 1 14 2 15 3 16 4 27 5 28 6 12 7 5 8 6 9 35 10 7 11 34 12
REMARK SMILES IDX 8 13 33 14 9 15 31 16 32 17 10 18 30 19 11 20 29 21 4 22
REMARK SMILES IDX 2 23 3 24 37 25 36 26 1 27 17 28 18 29 19 30 20 33 21 34
REMARK SMILES IDX 26 35 22 36 25 37 23 38 24 39
REMARK H PARENT 19 31 19 32
ROOT
ATOM      1  C   UNL     1     -10.456   0.379 -12.933  1.00  0.00    +0.225 A 
ATOM      2  N   UNL     1     -10.174  -0.365 -14.012  1.00  0.00    -0.221 NA
ATOM      3  C   UNL     1      -9.426   0.195 -14.986  1.00  0.00    +0.122 A 
ATOM      4  C   UNL     1      -8.927   1.483 -14.952  1.00  0.00    +0.013 A 
ATOM      5  C   UNL     1      -9.275   2.160 -13.804  1.00  0.00    +0.122 A 
ATOM      6  N   UNL     1     -10.019   1.640 -12.804  1.00  0.00    -0.221 NA
ENDROOT
BRANCH   1   7
ATOM      7  N   UNL     1     -11.195  -0.181 -11.912  1.00  0.00    -0.337 N 
ATOM      8  C   UNL     1     -15.891  -1.104  -6.782  1.00  0.00    +0.005 A 
ATOM      9  C   UNL     1     -14.989  -1.042  -7.876  1.00  0.00    +0.042 A 
ATOM     10  C   UNL     1     -15.153  -1.448  -5.672  1.00  0.00    +0.122 A 
ATOM     11  C   UNL     1     -13.726  -1.325  -7.389  1.00  0.00    +0.108 A 
ATOM     12  N   UNL     1     -13.850  -1.607  -6.060  1.00  0.00    -0.235 N 
ATOM     13  C   UNL     1     -12.417  -1.423  -7.978  1.00  0.00    +0.156 C 
ATOM     14  N   UNL     1     -12.848  -1.999  -5.262  1.00  0.00    -0.156 NA
ATOM     15  N   UNL     1     -12.115  -1.126  -9.301  1.00  0.00    -0.351 N 
ATOM     16  N   UNL     1     -11.458  -1.834  -7.195  1.00  0.00    -0.215 NA
ATOM     17  C   UNL     1     -11.712  -2.100  -5.875  1.00  0.00    +0.247 C 
ATOM     18  C   UNL     1     -10.818  -1.547  -9.866  1.00  0.00    +0.139 C 
ATOM     19  C   UNL     1     -12.811  -0.059 -10.044  1.00  0.00    +0.139 C 
ATOM     20  C   UNL     1     -10.808  -1.501 -11.407  1.00  0.00    +0.141 C 
ATOM     21  C   UNL     1     -11.877   0.724 -10.989  1.00  0.00    +0.141 C 
BRANCH   8  22
ATOM     22  C   UNL     1     -17.322  -0.856  -6.860  1.00  0.00    +0.021 A 
ATOM     23  N   UNL     1     -19.331   0.010  -6.822  1.00  0.00    -0.275 N 
ATOM     24  C   UNL     1     -18.016   0.303  -6.598  1.00  0.00    +0.117 A 
ATOM     25  N   UNL     1     -19.541  -1.261  -7.210  1.00  0.00    -0.181 NA
ATOM     26  C   UNL     1     -18.312  -1.788  -7.233  1.00  0.00    +0.143 A 
ATOM     27  C   UNL     1     -20.455   0.904  -6.685  1.00  0.00    +0.173 C 
ENDBRANCH   8  22
ENDBRANCH   1   7
BRANCH   4  28
ATOM     28  C   UNL     1      -8.093   2.053 -16.094  1.00  0.00    +0.067 C 
ATOM     29  C   UNL     1      -6.616   2.023 -15.627  1.00  0.00    +0.038 C 
BRANCH  28  30
ATOM     30  N   UNL     1      -8.117   1.221 -17.309  1.00  0.00    -0.318 NA
ATOM     31  H   UNL     1      -9.032   1.258 -17.747  1.00  0.00    +0.120 HD
ATOM     32  H   UNL     1      -7.897   0.253 -17.093  1.00  0.00    +0.120 HD
ENDBRANCH  28  30
BRANCH  28  33
ATOM     33  C   UNL     1      -8.587   3.459 -16.504  1.00  0.00    -0.024 A 
ATOM     34  C   UNL     1      -9.858   3.954 -16.151  1.00  0.00    +0.009 A 
ATOM     35  C   UNL     1      -7.735   4.314 -17.242  1.00  0.00    +0.009 A 
ATOM     36  C   UNL     1     -10.266   5.235 -16.536  1.00  0.00    +0.039 A 
ATOM     37  C   UNL     1      -8.145   5.593 -17.626  1.00  0.00    +0.039 A 
ATOM     38  C   UNL     1      -9.408   6.041 -17.270  1.00  0.00    +0.123 A 
ATOM     39  F   UNL     1      -9.803   7.267 -17.636  1.00  0.00    -0.207 F 
ENDBRANCH  28  33
ENDBRANCH   4  28
TORSDOF 5
ENDMDL
MODEL 8
REMARK VINA RESULT:    -8.859      4.005     12.102
REMARK INTER + INTRA:         -11.894
REMARK INTER:                 -11.065
REMARK INTRA:                  -0.828
REMARK UNBOUND:                -0.704
REMARK SMILES Cn1cc(-c2cc3c(N4CCN(c5ncc([C@@](C)(N)c6ccc(F)cc6)cn5)CC4)ncnn3c2)cn1
REMARK SMILES IDX 13 1 14 2 15 3 16 4 27 5 28 6 12 7 5 8 6 9 35 10 7 11 34 12
REMARK SMILES IDX 8 13 33 14 9 15 31 16 32 17 10 18 30 19 11 20 29 21 4 22
REMARK SMILES IDX 2 23 3 24 37 25 36 26 1 27 17 28 18 29 19 30 20 33 21 34
REMARK SMILES IDX 26 35 22 36 25 37 23 38 24 39
REMARK H PARENT 19 31 19 32
ROOT
ATOM      1  C   UNL     1      -5.927  -0.915 -15.771  1.00  0.00    +0.225 A 
ATOM      2  N   UNL     1      -6.264  -2.208 -15.670  1.00  0.00    -0.221 NA
ATOM      3  C   UNL     1      -5.280  -3.099 -15.426  1.00  0.00    +0.122 A 
ATOM      4  C   UNL     1      -3.945  -2.774 -15.273  1.00  0.00    +0.013 A 
ATOM      5  C   UNL     1      -3.707  -1.423 -15.396  1.00  0.00    +0.122 A 
ATOM      6  N   UNL     1      -4.660  -0.496 -15.637  1.00  0.00    -0.221 NA
ENDROOT
BRANCH   1   7
ATOM      7  N   UNL     1      -6.920   0.017 -15.991  1.00  0.00    -0.337 N 
ATOM      8  C   UNL     1     -10.273   6.062 -17.189  1.00  0.00    +0.005 A 
ATOM      9  C   UNL     1      -9.670   4.784 -17.057  1.00  0.00    +0.042 A 
ATOM     10  C   UNL     1     -11.165   6.195 -16.149  1.00  0.00    +0.122 A 
ATOM     11  C   UNL     1     -10.198   4.191 -15.924  1.00  0.00    +0.108 A 
ATOM     12  N   UNL     1     -11.130   5.044 -15.409  1.00  0.00    -0.235 N 
ATOM     13  C   UNL     1     -10.005   2.927 -15.265  1.00  0.00    +0.156 C 
ATOM     14  N   UNL     1     -11.906   4.782 -14.349  1.00  0.00    -0.156 NA
ATOM     15  N   UNL     1      -9.068   1.971 -15.635  1.00  0.00    -0.351 N 
ATOM     16  N   UNL     1     -10.789   2.675 -14.253  1.00  0.00    -0.215 NA
ATOM     17  C   UNL     1     -11.700   3.611 -13.837  1.00  0.00    +0.247 C 
ATOM     18  C   UNL     1      -9.163   0.604 -15.086  1.00  0.00    +0.139 C 
ATOM     19  C   UNL     1      -7.753   2.337 -16.194  1.00  0.00    +0.139 C 
ATOM     20  C   UNL     1      -8.319  -0.408 -15.885  1.00  0.00    +0.141 C 
ATOM     21  C   UNL     1      -6.615   1.417 -15.706  1.00  0.00    +0.141 C 
BRANCH   8  22
ATOM     22  C   UNL     1      -9.986   7.019 -18.246  1.00  0.00    +0.021 A 
ATOM     23  N   UNL     1      -9.342   8.743 -19.430  1.00  0.00    -0.275 N 
ATOM     24  C   UNL     1      -9.369   8.247 -18.158  1.00  0.00    +0.117 A 
ATOM     25  N   UNL     1      -9.903   7.924 -20.340  1.00  0.00    -0.181 NA
ATOM     26  C   UNL     1     -10.294   6.871 -19.613  1.00  0.00    +0.143 A 
ATOM     27  C   UNL     1      -8.792  10.006 -19.858  1.00  0.00    +0.173 C 
ENDBRANCH   8  22
ENDBRANCH   1   7
BRANCH   4  28
ATOM     28  C   UNL     1      -2.884  -3.836 -15.006  1.00  0.00    +0.067 C 
ATOM     29  C   UNL     1      -2.628  -4.559 -16.353  1.00  0.00    +0.038 C 
BRANCH  28  30
ATOM     30  N   UNL     1      -1.575  -3.275 -14.630  1.00  0.00    -0.318 NA
ATOM     31  H   UNL     1      -1.676  -2.312 -14.322  1.00  0.00    +0.120 HD
ATOM     32  H   UNL     1      -0.928  -3.300 -15.414  1.00  0.00    +0.120 HD
ENDBRANCH  28  30
BRANCH  28  33
ATOM     33  C   UNL     1      -3.311  -4.782 -13.862  1.00  0.00    -0.024 A 
ATOM     34  C   UNL     1      -3.641  -6.136 -14.073  1.00  0.00    +0.009 A 
ATOM     35  C   UNL     1      -3.351  -4.301 -12.532  1.00  0.00    +0.009 A 
ATOM     36  C   UNL     1      -4.015  -6.962 -13.010  1.00  0.00    +0.039 A 
ATOM     37  C   UNL     1      -3.727  -5.128 -11.471  1.00  0.00    +0.039 A 
ATOM     38  C   UNL     1      -4.058  -6.452 -11.721  1.00  0.00    +0.123 A 
ATOM     39  F   UNL     1      -4.417  -7.247 -10.705  1.00  0.00    -0.207 F 
ENDBRANCH  28  33
ENDBRANCH   4  28
TORSDOF 5
ENDMDL
MODEL 9
REMARK VINA RESULT:    -8.636      3.996     11.968
REMARK INTER + INTRA:         -11.611
REMARK INTER:                 -10.758
REMARK INTRA:                  -0.853
REMARK UNBOUND:                -0.704
REMARK SMILES Cn1cc(-c2cc3c(N4CCN(c5ncc([C@@](C)(N)c6ccc(F)cc6)cn5)CC4)ncnn3c2)cn1
REMARK SMILES IDX 13 1 14 2 15 3 16 4 27 5 28 6 12 7 5 8 6 9 35 10 7 11 34 12
REMARK SMILES IDX 8 13 33 14 9 15 31 16 32 17 10 18 30 19 11 20 29 21 4 22
REMARK SMILES IDX 2 23 3 24 37 25 36 26 1 27 17 28 18 29 19 30 20 33 21 34
REMARK SMILES IDX 26 35 22 36 25 37 23 38 24 39
REMARK H PARENT 19 31 19 32
ROOT
ATOM      1  C   UNL     1      -5.675  -0.758 -15.180  1.00  0.00    +0.225 A 
ATOM      2  N   UNL     1      -5.930  -1.807 -14.385  1.00  0.00    -0.221 NA
ATOM      3  C   UNL     1      -4.902  -2.617 -14.059  1.00  0.00    +0.122 A 
ATOM      4  C   UNL     1      -3.599  -2.444 -14.486  1.00  0.00    +0.013 A 
ATOM      5  C   UNL     1      -3.444  -1.341 -15.296  1.00  0.00    +0.122 A 
ATOM      6  N   UNL     1      -4.444  -0.502 -15.647  1.00  0.00    -0.221 NA
ENDROOT
BRANCH   1   7
ATOM      7  N   UNL     1      -6.705   0.100 -15.503  1.00  0.00    -0.337 N 
ATOM      8  C   UNL     1     -10.338   5.884 -17.107  1.00  0.00    +0.005 A 
ATOM      9  C   UNL     1      -9.665   4.652 -16.898  1.00  0.00    +0.042 A 
ATOM     10  C   UNL     1     -11.325   5.970 -16.150  1.00  0.00    +0.122 A 
ATOM     11  C   UNL     1     -10.248   4.041 -15.802  1.00  0.00    +0.108 A 
ATOM     12  N   UNL     1     -11.277   4.835 -15.386  1.00  0.00    -0.235 N 
ATOM     13  C   UNL     1     -10.029   2.802 -15.104  1.00  0.00    +0.156 C 
ATOM     14  N   UNL     1     -12.122   4.536 -14.391  1.00  0.00    -0.156 NA
ATOM     15  N   UNL     1      -9.001   1.907 -15.373  1.00  0.00    -0.351 N 
ATOM     16  N   UNL     1     -10.879   2.512 -14.157  1.00  0.00    -0.215 NA
ATOM     17  C   UNL     1     -11.884   3.389 -13.840  1.00  0.00    +0.247 C 
ATOM     18  C   UNL     1      -9.052   0.546 -14.806  1.00  0.00    +0.139 C 
ATOM     19  C   UNL     1      -7.671   2.355 -15.824  1.00  0.00    +0.139 C 
ATOM     20  C   UNL     1      -8.075  -0.418 -15.509  1.00  0.00    +0.141 C 
ATOM     21  C   UNL     1      -6.520   1.522 -15.221  1.00  0.00    +0.141 C 
BRANCH   8  22
ATOM     22  C   UNL     1     -10.025   6.843 -18.154  1.00  0.00    +0.021 A 
ATOM     23  N   UNL     1      -9.376   8.580 -19.316  1.00  0.00    -0.275 N 
ATOM     24  C   UNL     1      -9.457   8.092 -18.043  1.00  0.00    +0.117 A 
ATOM     25  N   UNL     1      -9.855   7.735 -20.248  1.00  0.00    -0.181 NA
ATOM     26  C   UNL     1     -10.250   6.675 -19.535  1.00  0.00    +0.143 A 
ATOM     27  C   UNL     1      -8.847   9.859 -19.722  1.00  0.00    +0.173 C 
ENDBRANCH   8  22
ENDBRANCH   1   7
BRANCH   4  28
ATOM     28  C   UNL     1      -2.486  -3.406 -14.083  1.00  0.00    +0.067 C 
ATOM     29  C   UNL     1      -3.022  -4.838 -14.333  1.00  0.00    +0.038 C 
BRANCH  28  30
ATOM     30  N   UNL     1      -1.287  -3.303 -14.932  1.00  0.00    -0.318 NA
ATOM     31  H   UNL     1      -0.610  -4.018 -14.679  1.00  0.00    +0.120 HD
ATOM     32  H   UNL     1      -0.849  -2.391 -14.837  1.00  0.00    +0.120 HD
ENDBRANCH  28  30
BRANCH  28  33
ATOM     33  C   UNL     1      -2.027  -3.157 -12.629  1.00  0.00    -0.024 A 
ATOM     34  C   UNL     1      -2.256  -4.079 -11.588  1.00  0.00    +0.009 A 
ATOM     35  C   UNL     1      -1.319  -1.974 -12.309  1.00  0.00    +0.009 A 
ATOM     36  C   UNL     1      -1.819  -3.820 -10.286  1.00  0.00    +0.039 A 
ATOM     37  C   UNL     1      -0.884  -1.717 -11.007  1.00  0.00    +0.039 A 
ATOM     38  C   UNL     1      -1.140  -2.643 -10.006  1.00  0.00    +0.123 A 
ATOM     39  F   UNL     1      -0.722  -2.400  -8.758  1.00  0.00    -0.207 F 
ENDBRANCH  28  33
ENDBRANCH   4  28
TORSDOF 5
ENDMDL
