MODEL 1
REMARK VINA RESULT:    -6.481      0.000      0.000
REMARK INTER + INTRA:         -11.420
REMARK INTER:                  -9.892
REMARK INTRA:                  -1.529
REMARK UNBOUND:                -1.529
REMARK SMILES COC(=O)c1ccc2c(c1)NC(=O)/C2=C(\Nc1ccc(N(C)C(=O)CN2CCN(C)CC2)cc1)c1ccccc1
REMARK SMILES IDX 17 1 18 2 19 3 20 4 33 5 34 6 16 7 15 9 5 10 6 11 10 12 7 13
REMARK SMILES IDX 9 14 8 15 11 16 14 17 12 18 13 19 3 21 4 22 2 23 1 24 35 25
REMARK SMILES IDX 36 26 40 27 37 28 39 29 38 30 21 31 22 32 23 33 24 34 25 35
REMARK SMILES IDX 26 36 27 37 32 38 28 39 31 40 29 41 30 42
REMARK H PARENT 16 8 11 20
ROOT
ATOM      1  C   UNL     1      18.728  -4.661  14.218  1.00  0.00    +0.039 A 
ATOM      2  C   UNL     1      17.699  -4.607  15.150  1.00  0.00    +0.028 A 
ATOM      3  C   UNL     1      17.039  -5.771  15.589  1.00  0.00    +0.028 A 
ATOM      4  C   UNL     1      17.368  -7.043  15.097  1.00  0.00    +0.043 A 
ATOM      5  C   UNL     1      18.412  -7.095  14.168  1.00  0.00    +0.028 A 
ATOM      6  C   UNL     1      19.068  -5.932  13.734  1.00  0.00    +0.028 A 
ENDROOT
BRANCH   1   7
ATOM      7  N   UNL     1      19.411  -3.556  13.685  1.00  0.00    -0.354 N 
ATOM      8  H   UNL     1      18.832  -3.027  13.021  1.00  0.00    +0.167 HD
BRANCH   7   9
ATOM      9  C   UNL     1      20.696  -3.034  13.810  1.00  0.00    +0.059 C 
ATOM     10  C   UNL     1      25.295  -1.324  11.554  1.00  0.00    +0.062 A 
ATOM     11  C   UNL     1      24.978  -1.164  12.919  1.00  0.00    +0.016 A 
ATOM     12  C   UNL     1      24.379  -1.940  10.692  1.00  0.00    +0.042 A 
ATOM     13  C   UNL     1      23.756  -1.621  13.439  1.00  0.00    +0.012 A 
ATOM     14  C   UNL     1      23.186  -2.380  11.233  1.00  0.00    +0.050 A 
ATOM     15  C   UNL     1      22.860  -2.247  12.589  1.00  0.00    +0.013 A 
ATOM     16  N   UNL     1      22.148  -2.982  10.531  1.00  0.00    -0.321 N 
ATOM     17  C   UNL     1      21.514  -2.836  12.745  1.00  0.00    +0.073 C 
ATOM     18  C   UNL     1      21.083  -3.271  11.361  1.00  0.00    +0.258 C 
ATOM     19  O   UNL     1      20.018  -3.768  11.039  1.00  0.00    -0.269 OA
ATOM     20  H   UNL     1      22.133  -3.166   9.540  1.00  0.00    +0.170 HD
BRANCH  10  21
ATOM     21  C   UNL     1      26.581  -0.850  10.975  1.00  0.00    +0.337 C 
ATOM     22  O   UNL     1      27.398  -1.594  10.458  1.00  0.00    -0.246 OA
BRANCH  21  23
ATOM     23  O   UNL     1      26.701   0.495  11.106  1.00  0.00    -0.465 OA
ATOM     24  C   UNL     1      25.620   1.232  10.534  1.00  0.00    +0.282 C 
ENDBRANCH  21  23
ENDBRANCH  10  21
BRANCH   9  25
ATOM     25  C   UNL     1      21.164  -2.604  15.142  1.00  0.00    -0.001 A 
ATOM     26  C   UNL     1      21.399  -1.247  15.413  1.00  0.00    +0.010 A 
ATOM     27  C   UNL     1      21.369  -3.550  16.157  1.00  0.00    +0.010 A 
ATOM     28  C   UNL     1      21.829  -0.844  16.679  1.00  0.00    +0.001 A 
ATOM     29  C   UNL     1      21.800  -3.145  17.421  1.00  0.00    +0.001 A 
ATOM     30  C   UNL     1      22.028  -1.793  17.681  1.00  0.00    +0.000 A 
ENDBRANCH   9  25
ENDBRANCH   7   9
ENDBRANCH   1   7
BRANCH   4  31
ATOM     31  N   UNL     1      16.698  -8.235  15.575  1.00  0.00    -0.314 N 
ATOM     32  C   UNL     1      17.495  -9.187  16.351  1.00  0.00    +0.153 C 
BRANCH  31  33
ATOM     33  C   UNL     1      15.311  -8.434  15.400  1.00  0.00    +0.240 C 
ATOM     34  O   UNL     1      14.482  -8.284  16.300  1.00  0.00    -0.273 OA
BRANCH  33  35
ATOM     35  C   UNL     1      14.873  -8.871  13.980  1.00  0.00    +0.185 C 
BRANCH  35  36
ATOM     36  N   UNL     1      15.036  -7.858  12.920  1.00  0.00    -0.292 NA
ATOM     37  C   UNL     1      14.197  -6.668  13.090  1.00  0.00    +0.100 C 
ATOM     38  C   UNL     1      14.935  -8.405  11.556  1.00  0.00    +0.100 C 
ATOM     39  C   UNL     1      14.553  -5.544  12.077  1.00  0.00    +0.099 C 
ATOM     40  C   UNL     1      14.551  -7.355  10.479  1.00  0.00    +0.099 C 
ATOM     41  N   UNL     1      15.019  -5.981  10.740  1.00  0.00    -0.304 NA
ATOM     42  C   UNL     1      16.476  -5.898  10.643  1.00  0.00    +0.105 C 
ENDBRANCH  35  36
ENDBRANCH  33  35
ENDBRANCH  31  33
ENDBRANCH   4  31
TORSDOF 9
ENDMDL
MODEL 2
REMARK VINA RESULT:    -6.268      1.541      3.003
REMARK INTER + INTRA:         -11.095
REMARK INTER:                 -10.431
REMARK INTRA:                  -0.664
REMARK UNBOUND:                -1.529
REMARK SMILES COC(=O)c1ccc2c(c1)NC(=O)/C2=C(\Nc1ccc(N(C)C(=O)CN2CCN(C)CC2)cc1)c1ccccc1
REMARK SMILES IDX 17 1 18 2 19 3 20 4 33 5 34 6 16 7 15 9 5 10 6 11 10 12 7 13
REMARK SMILES IDX 9 14 8 15 11 16 14 17 12 18 13 19 3 21 4 22 2 23 1 24 35 25
REMARK SMILES IDX 36 26 40 27 37 28 39 29 38 30 21 31 22 32 23 33 24 34 25 35
REMARK SMILES IDX 26 36 27 37 32 38 28 39 31 40 29 41 30 42
REMARK H PARENT 16 8 11 20
ROOT
ATOM      1  C   UNL     1      19.370  -5.025  13.492  1.00  0.00    +0.039 A 
ATOM      2  C   UNL     1      18.427  -4.070  13.853  1.00  0.00    +0.028 A 
ATOM      3  C   UNL     1      17.048  -4.290  13.672  1.00  0.00    +0.028 A 
ATOM      4  C   UNL     1      16.551  -5.472  13.101  1.00  0.00    +0.043 A 
ATOM      5  C   UNL     1      17.502  -6.435  12.751  1.00  0.00    +0.028 A 
ATOM      6  C   UNL     1      18.877  -6.212  12.934  1.00  0.00    +0.028 A 
ENDROOT
BRANCH   1   7
ATOM      7  N   UNL     1      20.763  -4.878  13.588  1.00  0.00    -0.354 N 
ATOM      8  H   UNL     1      21.246  -5.784  13.624  1.00  0.00    +0.167 HD
BRANCH   7   9
ATOM      9  C   UNL     1      21.638  -3.799  13.691  1.00  0.00    +0.059 C 
ATOM     10  C   UNL     1      25.222  -0.446  11.436  1.00  0.00    +0.062 A 
ATOM     11  C   UNL     1      24.677  -0.270  12.726  1.00  0.00    +0.016 A 
ATOM     12  C   UNL     1      24.818  -1.533  10.651  1.00  0.00    +0.042 A 
ATOM     13  C   UNL     1      23.738  -1.174  13.247  1.00  0.00    +0.012 A 
ATOM     14  C   UNL     1      23.892  -2.406  11.191  1.00  0.00    +0.050 A 
ATOM     15  C   UNL     1      23.355  -2.259  12.477  1.00  0.00    +0.013 A 
ATOM     16  N   UNL     1      23.353  -3.517  10.554  1.00  0.00    -0.321 N 
ATOM     17  C   UNL     1      22.417  -3.386  12.659  1.00  0.00    +0.073 C 
ATOM     18  C   UNL     1      22.431  -4.158  11.357  1.00  0.00    +0.258 C 
ATOM     19  O   UNL     1      21.767  -5.138  11.070  1.00  0.00    -0.269 OA
ATOM     20  H   UNL     1      23.563  -3.820   9.615  1.00  0.00    +0.170 HD
BRANCH  10  21
ATOM     21  C   UNL     1      26.218   0.495  10.857  1.00  0.00    +0.337 C 
ATOM     22  O   UNL     1      27.311   0.143  10.443  1.00  0.00    -0.246 OA
BRANCH  21  23
ATOM     23  O   UNL     1      25.739   1.764  10.861  1.00  0.00    -0.465 OA
ATOM     24  C   UNL     1      24.362   1.866  10.493  1.00  0.00    +0.282 C 
ENDBRANCH  21  23
ENDBRANCH  10  21
BRANCH   9  25
ATOM     25  C   UNL     1      21.666  -3.022  14.945  1.00  0.00    -0.001 A 
ATOM     26  C   UNL     1      21.413  -1.641  14.935  1.00  0.00    +0.010 A 
ATOM     27  C   UNL     1      21.937  -3.659  16.164  1.00  0.00    +0.010 A 
ATOM     28  C   UNL     1      21.429  -0.912  16.126  1.00  0.00    +0.001 A 
ATOM     29  C   UNL     1      21.953  -2.928  17.353  1.00  0.00    +0.001 A 
ATOM     30  C   UNL     1      21.697  -1.557  17.333  1.00  0.00    +0.000 A 
ENDBRANCH   9  25
ENDBRANCH   7   9
ENDBRANCH   1   7
BRANCH   4  31
ATOM     31  N   UNL     1      15.129  -5.696  12.944  1.00  0.00    -0.314 N 
ATOM     32  C   UNL     1      14.252  -4.527  13.029  1.00  0.00    +0.153 C 
BRANCH  31  33
ATOM     33  C   UNL     1      14.605  -6.967  12.618  1.00  0.00    +0.240 C 
ATOM     34  O   UNL     1      14.308  -7.307  11.471  1.00  0.00    -0.273 OA
BRANCH  33  35
ATOM     35  C   UNL     1      14.409  -7.935  13.811  1.00  0.00    +0.185 C 
BRANCH  35  36
ATOM     36  N   UNL     1      15.406  -7.828  14.892  1.00  0.00    -0.292 NA
ATOM     37  C   UNL     1      16.252  -9.015  15.050  1.00  0.00    +0.100 C 
ATOM     38  C   UNL     1      14.841  -7.388  16.179  1.00  0.00    +0.100 C 
ATOM     39  C   UNL     1      17.418  -8.781  16.050  1.00  0.00    +0.099 C 
ATOM     40  C   UNL     1      15.691  -7.787  17.415  1.00  0.00    +0.099 C 
ATOM     41  N   UNL     1      17.146  -7.866  17.183  1.00  0.00    -0.304 NA
ATOM     42  C   UNL     1      17.707  -6.539  16.928  1.00  0.00    +0.105 C 
ENDBRANCH  35  36
ENDBRANCH  33  35
ENDBRANCH  31  33
ENDBRANCH   4  31
TORSDOF 9
ENDMDL
MODEL 3
REMARK VINA RESULT:    -5.299      1.392      2.809
REMARK INTER + INTRA:          -9.616
REMARK INTER:                  -9.587
REMARK INTRA:                  -0.029
REMARK UNBOUND:                -1.529
REMARK SMILES COC(=O)c1ccc2c(c1)NC(=O)/C2=C(\Nc1ccc(N(C)C(=O)CN2CCN(C)CC2)cc1)c1ccccc1
REMARK SMILES IDX 17 1 18 2 19 3 20 4 33 5 34 6 16 7 15 9 5 10 6 11 10 12 7 13
REMARK SMILES IDX 9 14 8 15 11 16 14 17 12 18 13 19 3 21 4 22 2 23 1 24 35 25
REMARK SMILES IDX 36 26 40 27 37 28 39 29 38 30 21 31 22 32 23 33 24 34 25 35
REMARK SMILES IDX 26 36 27 37 32 38 28 39 31 40 29 41 30 42
REMARK H PARENT 16 8 11 20
ROOT
ATOM      1  C   UNL     1      18.476  -4.318  13.183  1.00  0.00    +0.039 A 
ATOM      2  C   UNL     1      17.103  -4.456  13.358  1.00  0.00    +0.028 A 
ATOM      3  C   UNL     1      16.443  -5.669  13.085  1.00  0.00    +0.028 A 
ATOM      4  C   UNL     1      17.126  -6.795  12.601  1.00  0.00    +0.043 A 
ATOM      5  C   UNL     1      18.507  -6.657  12.437  1.00  0.00    +0.028 A 
ATOM      6  C   UNL     1      19.162  -5.446  12.713  1.00  0.00    +0.028 A 
ENDROOT
BRANCH   1   7
ATOM      7  N   UNL     1      19.213  -3.140  13.382  1.00  0.00    -0.354 N 
ATOM      8  H   UNL     1      18.628  -2.300  13.301  1.00  0.00    +0.167 HD
BRANCH   7   9
ATOM      9  C   UNL     1      20.553  -2.841  13.618  1.00  0.00    +0.059 C 
ATOM     10  C   UNL     1      25.499  -1.722  11.761  1.00  0.00    +0.062 A 
ATOM     11  C   UNL     1      25.121  -1.616  13.117  1.00  0.00    +0.016 A 
ATOM     12  C   UNL     1      24.557  -2.117  10.803  1.00  0.00    +0.042 A 
ATOM     13  C   UNL     1      23.812  -1.910  13.531  1.00  0.00    +0.012 A 
ATOM     14  C   UNL     1      23.277  -2.400  11.241  1.00  0.00    +0.050 A 
ATOM     15  C   UNL     1      22.887  -2.320  12.585  1.00  0.00    +0.013 A 
ATOM     16  N   UNL     1      22.207  -2.774  10.437  1.00  0.00    -0.321 N 
ATOM     17  C   UNL     1      21.459  -2.696  12.619  1.00  0.00    +0.073 C 
ATOM     18  C   UNL     1      21.058  -2.951  11.182  1.00  0.00    +0.258 C 
ATOM     19  O   UNL     1      19.953  -3.247  10.763  1.00  0.00    -0.269 OA
ATOM     20  H   UNL     1      22.228  -2.878   9.434  1.00  0.00    +0.170 HD
BRANCH  10  21
ATOM     21  C   UNL     1      26.878  -1.416  11.293  1.00  0.00    +0.337 C 
ATOM     22  O   UNL     1      27.502  -2.138  10.532  1.00  0.00    -0.246 OA
BRANCH  21  23
ATOM     23  O   UNL     1      27.319  -0.250  11.826  1.00  0.00    -0.465 OA
ATOM     24  C   UNL     1      26.485   0.873  11.535  1.00  0.00    +0.282 C 
ENDBRANCH  21  23
ENDBRANCH  10  21
BRANCH   9  25
ATOM     25  C   UNL     1      20.993  -2.593  15.005  1.00  0.00    -0.001 A 
ATOM     26  C   UNL     1      21.324  -1.296  15.427  1.00  0.00    +0.010 A 
ATOM     27  C   UNL     1      21.075  -3.653  15.920  1.00  0.00    +0.010 A 
ATOM     28  C   UNL     1      21.729  -1.064  16.744  1.00  0.00    +0.001 A 
ATOM     29  C   UNL     1      21.480  -3.419  17.235  1.00  0.00    +0.001 A 
ATOM     30  C   UNL     1      21.804  -2.125  17.646  1.00  0.00    +0.000 A 
ENDBRANCH   9  25
ENDBRANCH   7   9
ENDBRANCH   1   7
BRANCH   4  31
ATOM     31  N   UNL     1      16.438  -8.045  12.348  1.00  0.00    -0.314 N 
ATOM     32  C   UNL     1      17.254  -9.188  11.935  1.00  0.00    +0.153 C 
BRANCH  31  33
ATOM     33  C   UNL     1      15.054  -8.197  12.586  1.00  0.00    +0.240 C 
ATOM     34  O   UNL     1      14.198  -8.115  11.702  1.00  0.00    -0.273 OA
BRANCH  33  35
ATOM     35  C   UNL     1      14.655  -8.472  14.057  1.00  0.00    +0.185 C 
BRANCH  35  36
ATOM     36  N   UNL     1      15.658  -8.101  15.072  1.00  0.00    -0.292 NA
ATOM     37  C   UNL     1      16.749  -9.069  15.223  1.00  0.00    +0.100 C 
ATOM     38  C   UNL     1      15.077  -7.729  16.373  1.00  0.00    +0.100 C 
ATOM     39  C   UNL     1      17.886  -8.540  16.142  1.00  0.00    +0.099 C 
ATOM     40  C   UNL     1      16.055  -7.874  17.570  1.00  0.00    +0.099 C 
ATOM     41  N   UNL     1      17.479  -7.651  17.254  1.00  0.00    -0.304 NA
ATOM     42  C   UNL     1      17.724  -6.248  16.917  1.00  0.00    +0.105 C 
ENDBRANCH  35  36
ENDBRANCH  33  35
ENDBRANCH  31  33
ENDBRANCH   4  31
TORSDOF 9
ENDMDL
MODEL 4
REMARK VINA RESULT:    -4.398      1.568      2.181
REMARK INTER + INTRA:          -8.240
REMARK INTER:                  -7.346
REMARK INTRA:                  -0.895
REMARK UNBOUND:                -1.529
REMARK SMILES COC(=O)c1ccc2c(c1)NC(=O)/C2=C(\Nc1ccc(N(C)C(=O)CN2CCN(C)CC2)cc1)c1ccccc1
REMARK SMILES IDX 17 1 18 2 19 3 20 4 33 5 34 6 16 7 15 9 5 10 6 11 10 12 7 13
REMARK SMILES IDX 9 14 8 15 11 16 14 17 12 18 13 19 3 21 4 22 2 23 1 24 35 25
REMARK SMILES IDX 36 26 40 27 37 28 39 29 38 30 21 31 22 32 23 33 24 34 25 35
REMARK SMILES IDX 26 36 27 37 32 38 28 39 31 40 29 41 30 42
REMARK H PARENT 16 8 11 20
ROOT
ATOM      1  C   UNL     1      18.398  -4.408  14.607  1.00  0.00    +0.039 A 
ATOM      2  C   UNL     1      18.929  -5.642  14.964  1.00  0.00    +0.028 A 
ATOM      3  C   UNL     1      18.121  -6.790  15.070  1.00  0.00    +0.028 A 
ATOM      4  C   UNL     1      16.737  -6.749  14.843  1.00  0.00    +0.043 A 
ATOM      5  C   UNL     1      16.209  -5.509  14.473  1.00  0.00    +0.028 A 
ATOM      6  C   UNL     1      17.018  -4.366  14.366  1.00  0.00    +0.028 A 
ENDROOT
BRANCH   1   7
ATOM      7  N   UNL     1      19.112  -3.201  14.522  1.00  0.00    -0.354 N 
ATOM      8  H   UNL     1      18.495  -2.397  14.359  1.00  0.00    +0.167 HD
BRANCH   7   9
ATOM      9  C   UNL     1      20.458  -2.845  14.562  1.00  0.00    +0.059 C 
ATOM     10  C   UNL     1      25.072  -1.681  12.009  1.00  0.00    +0.062 A 
ATOM     11  C   UNL     1      24.869  -1.505  13.394  1.00  0.00    +0.016 A 
ATOM     12  C   UNL     1      24.030  -2.164  11.207  1.00  0.00    +0.042 A 
ATOM     13  C   UNL     1      23.638  -1.816  13.993  1.00  0.00    +0.012 A 
ATOM     14  C   UNL     1      22.830  -2.462  11.825  1.00  0.00    +0.050 A 
ATOM     15  C   UNL     1      22.616  -2.312  13.202  1.00  0.00    +0.013 A 
ATOM     16  N   UNL     1      21.681  -2.919  11.192  1.00  0.00    -0.321 N 
ATOM     17  C   UNL     1      21.220  -2.732  13.445  1.00  0.00    +0.073 C 
ATOM     18  C   UNL     1      20.647  -3.087  12.091  1.00  0.00    +0.258 C 
ATOM     19  O   UNL     1      19.509  -3.444  11.839  1.00  0.00    -0.269 OA
ATOM     20  H   UNL     1      21.576  -3.084  10.202  1.00  0.00    +0.170 HD
BRANCH  10  21
ATOM     21  C   UNL     1      26.365  -1.360  11.346  1.00  0.00    +0.337 C 
ATOM     22  O   UNL     1      27.351  -2.076  11.418  1.00  0.00    -0.246 OA
BRANCH  21  23
ATOM     23  O   UNL     1      26.282  -0.186  10.673  1.00  0.00    -0.465 OA
ATOM     24  C   UNL     1      25.964   0.936  11.499  1.00  0.00    +0.282 C 
ENDBRANCH  21  23
ENDBRANCH  10  21
BRANCH   9  25
ATOM     25  C   UNL     1      21.064  -2.498  15.863  1.00  0.00    -0.001 A 
ATOM     26  C   UNL     1      21.292  -3.489  16.831  1.00  0.00    +0.010 A 
ATOM     27  C   UNL     1      21.427  -1.173  16.141  1.00  0.00    +0.010 A 
ATOM     28  C   UNL     1      21.876  -3.158  18.055  1.00  0.00    +0.001 A 
ATOM     29  C   UNL     1      22.010  -0.845  17.366  1.00  0.00    +0.001 A 
ATOM     30  C   UNL     1      22.236  -1.837  18.320  1.00  0.00    +0.000 A 
ENDBRANCH   9  25
ENDBRANCH   7   9
ENDBRANCH   1   7
BRANCH   4  31
ATOM     31  N   UNL     1      15.922  -7.943  14.931  1.00  0.00    -0.314 N 
ATOM     32  C   UNL     1      15.853  -8.614  16.230  1.00  0.00    +0.153 C 
BRANCH  31  33
ATOM     33  C   UNL     1      15.136  -8.392  13.846  1.00  0.00    +0.240 C 
ATOM     34  O   UNL     1      14.205  -9.191  13.965  1.00  0.00    -0.273 OA
BRANCH  33  35
ATOM     35  C   UNL     1      15.523  -7.822  12.460  1.00  0.00    +0.185 C 
BRANCH  35  36
ATOM     36  N   UNL     1      16.951  -7.916  12.105  1.00  0.00    -0.292 NA
ATOM     37  C   UNL     1      17.461  -6.766  11.351  1.00  0.00    +0.100 C 
ATOM     38  C   UNL     1      17.322  -9.191  11.468  1.00  0.00    +0.100 C 
ATOM     39  C   UNL     1      19.006  -6.807  11.183  1.00  0.00    +0.099 C 
ATOM     40  C   UNL     1      18.613  -9.120  10.608  1.00  0.00    +0.099 C 
ATOM     41  N   UNL     1      19.624  -8.148  11.066  1.00  0.00    -0.304 NA
ATOM     42  C   UNL     1      20.211  -8.566  12.339  1.00  0.00    +0.105 C 
ENDBRANCH  35  36
ENDBRANCH  33  35
ENDBRANCH  31  33
ENDBRANCH   4  31
TORSDOF 9
ENDMDL
MODEL 5
REMARK VINA RESULT:    -4.259      1.827      2.632
REMARK INTER + INTRA:          -8.029
REMARK INTER:                  -6.254
REMARK INTRA:                  -1.775
REMARK UNBOUND:                -1.529
REMARK SMILES COC(=O)c1ccc2c(c1)NC(=O)/C2=C(\Nc1ccc(N(C)C(=O)CN2CCN(C)CC2)cc1)c1ccccc1
REMARK SMILES IDX 17 1 18 2 19 3 20 4 33 5 34 6 16 7 15 9 5 10 6 11 10 12 7 13
REMARK SMILES IDX 9 14 8 15 11 16 14 17 12 18 13 19 3 21 4 22 2 23 1 24 35 25
REMARK SMILES IDX 36 26 40 27 37 28 39 29 38 30 21 31 22 32 23 33 24 34 25 35
REMARK SMILES IDX 26 36 27 37 32 38 28 39 31 40 29 41 30 42
REMARK H PARENT 16 8 11 20
ROOT
ATOM      1  C   UNL     1      19.359  -5.402  15.911  1.00  0.00    +0.039 A 
ATOM      2  C   UNL     1      18.763  -6.194  16.887  1.00  0.00    +0.028 A 
ATOM      3  C   UNL     1      17.407  -6.564  16.809  1.00  0.00    +0.028 A 
ATOM      4  C   UNL     1      16.579  -6.140  15.759  1.00  0.00    +0.043 A 
ATOM      5  C   UNL     1      17.184  -5.355  14.773  1.00  0.00    +0.028 A 
ATOM      6  C   UNL     1      18.538  -4.989  14.854  1.00  0.00    +0.028 A 
ENDROOT
BRANCH   1   7
ATOM      7  N   UNL     1      20.686  -4.943  15.926  1.00  0.00    -0.354 N 
ATOM      8  H   UNL     1      21.360  -5.713  16.012  1.00  0.00    +0.167 HD
BRANCH   7   9
ATOM      9  C   UNL     1      21.299  -3.693  15.895  1.00  0.00    +0.059 C 
ATOM     10  C   UNL     1      23.703   0.278  13.135  1.00  0.00    +0.062 A 
ATOM     11  C   UNL     1      23.305   0.382  14.485  1.00  0.00    +0.016 A 
ATOM     12  C   UNL     1      23.457  -0.904  12.425  1.00  0.00    +0.042 A 
ATOM     13  C   UNL     1      22.672  -0.686  15.140  1.00  0.00    +0.012 A 
ATOM     14  C   UNL     1      22.832  -1.938  13.096  1.00  0.00    +0.050 A 
ATOM     15  C   UNL     1      22.448  -1.861  14.442  1.00  0.00    +0.013 A 
ATOM     16  N   UNL     1      22.481  -3.166  12.550  1.00  0.00    -0.321 N 
ATOM     17  C   UNL     1      21.822  -3.160  14.762  1.00  0.00    +0.073 C 
ATOM     18  C   UNL     1      21.841  -3.963  13.479  1.00  0.00    +0.258 C 
ATOM     19  O   UNL     1      21.385  -5.078  13.297  1.00  0.00    -0.269 OA
ATOM     20  H   UNL     1      22.629  -3.454  11.595  1.00  0.00    +0.170 HD
BRANCH  10  21
ATOM     21  C   UNL     1      24.375   1.393  12.414  1.00  0.00    +0.337 C 
ATOM     22  O   UNL     1      23.799   2.413  12.073  1.00  0.00    -0.246 OA
BRANCH  21  23
ATOM     23  O   UNL     1      25.684   1.110  12.203  1.00  0.00    -0.465 OA
ATOM     24  C   UNL     1      26.208   1.658  10.992  1.00  0.00    +0.282 C 
ENDBRANCH  21  23
ENDBRANCH  10  21
BRANCH   9  25
ATOM     25  C   UNL     1      21.313  -2.877  17.125  1.00  0.00    -0.001 A 
ATOM     26  C   UNL     1      22.431  -2.886  17.975  1.00  0.00    +0.010 A 
ATOM     27  C   UNL     1      20.211  -2.075  17.453  1.00  0.00    +0.010 A 
ATOM     28  C   UNL     1      22.444  -2.104  19.131  1.00  0.00    +0.001 A 
ATOM     29  C   UNL     1      20.226  -1.295  18.610  1.00  0.00    +0.001 A 
ATOM     30  C   UNL     1      21.343  -1.308  19.446  1.00  0.00    +0.000 A 
ENDBRANCH   9  25
ENDBRANCH   7   9
ENDBRANCH   1   7
BRANCH   4  31
ATOM     31  N   UNL     1      15.192  -6.549  15.678  1.00  0.00    -0.314 N 
ATOM     32  C   UNL     1      14.201  -5.511  15.391  1.00  0.00    +0.153 C 
BRANCH  31  33
ATOM     33  C   UNL     1      14.807  -7.906  15.766  1.00  0.00    +0.240 C 
ATOM     34  O   UNL     1      14.816  -8.550  16.817  1.00  0.00    -0.273 OA
BRANCH  33  35
ATOM     35  C   UNL     1      14.369  -8.563  14.434  1.00  0.00    +0.185 C 
BRANCH  35  36
ATOM     36  N   UNL     1      15.392  -8.604  13.373  1.00  0.00    -0.292 NA
ATOM     37  C   UNL     1      16.745  -8.903  13.854  1.00  0.00    +0.100 C 
ATOM     38  C   UNL     1      15.377  -7.428  12.487  1.00  0.00    +0.100 C 
ATOM     39  C   UNL     1      17.746  -9.144  12.689  1.00  0.00    +0.099 C 
ATOM     40  C   UNL     1      16.720  -7.167  11.755  1.00  0.00    +0.099 C 
ATOM     41  N   UNL     1      17.517  -8.371  11.447  1.00  0.00    -0.304 NA
ATOM     42  C   UNL     1      16.851  -9.192  10.436  1.00  0.00    +0.105 C 
ENDBRANCH  35  36
ENDBRANCH  33  35
ENDBRANCH  31  33
ENDBRANCH   4  31
TORSDOF 9
ENDMDL
MODEL 6
REMARK VINA RESULT:    -3.166      3.352      5.651
REMARK INTER + INTRA:          -6.360
REMARK INTER:                  -7.214
REMARK INTRA:                   0.854
REMARK UNBOUND:                -1.529
REMARK SMILES COC(=O)c1ccc2c(c1)NC(=O)/C2=C(\Nc1ccc(N(C)C(=O)CN2CCN(C)CC2)cc1)c1ccccc1
REMARK SMILES IDX 17 1 18 2 19 3 20 4 33 5 34 6 16 7 15 9 5 10 6 11 10 12 7 13
REMARK SMILES IDX 9 14 8 15 11 16 14 17 12 18 13 19 3 21 4 22 2 23 1 24 35 25
REMARK SMILES IDX 36 26 40 27 37 28 39 29 38 30 21 31 22 32 23 33 24 34 25 35
REMARK SMILES IDX 26 36 27 37 32 38 28 39 31 40 29 41 30 42
REMARK H PARENT 16 8 11 20
ROOT
ATOM      1  C   UNL     1      19.844  -4.403  12.581  1.00  0.00    +0.039 A 
ATOM      2  C   UNL     1      18.569  -4.731  12.134  1.00  0.00    +0.028 A 
ATOM      3  C   UNL     1      18.258  -6.026  11.678  1.00  0.00    +0.028 A 
ATOM      4  C   UNL     1      19.218  -7.048  11.629  1.00  0.00    +0.043 A 
ATOM      5  C   UNL     1      20.496  -6.718  12.090  1.00  0.00    +0.028 A 
ATOM      6  C   UNL     1      20.802  -5.425  12.546  1.00  0.00    +0.028 A 
ENDROOT
BRANCH   1   7
ATOM      7  N   UNL     1      20.261  -3.132  13.008  1.00  0.00    -0.354 N 
ATOM      8  H   UNL     1      19.994  -2.395  12.345  1.00  0.00    +0.167 HD
BRANCH   7   9
ATOM      9  C   UNL     1      20.987  -2.642  14.091  1.00  0.00    +0.059 C 
ATOM     10  C   UNL     1      21.904  -2.448  19.410  1.00  0.00    +0.062 A 
ATOM     11  C   UNL     1      22.758  -1.883  18.439  1.00  0.00    +0.016 A 
ATOM     12  C   UNL     1      20.748  -3.129  19.009  1.00  0.00    +0.042 A 
ATOM     13  C   UNL     1      22.467  -1.981  17.069  1.00  0.00    +0.012 A 
ATOM     14  C   UNL     1      20.487  -3.209  17.654  1.00  0.00    +0.050 A 
ATOM     15  C   UNL     1      21.313  -2.638  16.677  1.00  0.00    +0.013 A 
ATOM     16  N   UNL     1      19.411  -3.868  17.071  1.00  0.00    -0.321 N 
ATOM     17  C   UNL     1      20.684  -2.952  15.377  1.00  0.00    +0.073 C 
ATOM     18  C   UNL     1      19.461  -3.786  15.693  1.00  0.00    +0.258 C 
ATOM     19  O   UNL     1      18.682  -4.288  14.902  1.00  0.00    -0.269 OA
ATOM     20  H   UNL     1      18.692  -4.376  17.561  1.00  0.00    +0.170 HD
BRANCH  10  21
ATOM     21  C   UNL     1      22.187  -2.360  20.868  1.00  0.00    +0.337 C 
ATOM     22  O   UNL     1      21.369  -2.646  21.728  1.00  0.00    -0.246 OA
BRANCH  21  23
ATOM     23  O   UNL     1      23.453  -1.928  21.087  1.00  0.00    -0.465 OA
ATOM     24  C   UNL     1      23.536  -0.782  21.936  1.00  0.00    +0.282 C 
ENDBRANCH  21  23
ENDBRANCH  10  21
BRANCH   9  25
ATOM     25  C   UNL     1      22.183  -1.816  13.832  1.00  0.00    -0.001 A 
ATOM     26  C   UNL     1      23.138  -2.221  12.886  1.00  0.00    +0.010 A 
ATOM     27  C   UNL     1      22.371  -0.611  14.523  1.00  0.00    +0.010 A 
ATOM     28  C   UNL     1      24.262  -1.431  12.636  1.00  0.00    +0.001 A 
ATOM     29  C   UNL     1      23.495   0.177  14.272  1.00  0.00    +0.001 A 
ATOM     30  C   UNL     1      24.438  -0.232  13.328  1.00  0.00    +0.000 A 
ENDBRANCH   9  25
ENDBRANCH   7   9
ENDBRANCH   1   7
BRANCH   4  31
ATOM     31  N   UNL     1      18.878  -8.383  11.180  1.00  0.00    -0.314 N 
ATOM     32  C   UNL     1      19.954  -9.192  10.606  1.00  0.00    +0.153 C 
BRANCH  31  33
ATOM     33  C   UNL     1      17.592  -8.933  11.379  1.00  0.00    +0.240 C 
ATOM     34  O   UNL     1      16.813  -9.192  10.459  1.00  0.00    -0.273 OA
BRANCH  33  35
ATOM     35  C   UNL     1      17.196  -9.192  12.853  1.00  0.00    +0.185 C 
BRANCH  35  36
ATOM     36  N   UNL     1      16.427  -8.118  13.508  1.00  0.00    -0.292 NA
ATOM     37  C   UNL     1      15.887  -8.479  14.823  1.00  0.00    +0.100 C 
ATOM     38  C   UNL     1      15.397  -7.514  12.645  1.00  0.00    +0.100 C 
ATOM     39  C   UNL     1      15.270  -7.261  15.564  1.00  0.00    +0.099 C 
ATOM     40  C   UNL     1      14.248  -6.817  13.421  1.00  0.00    +0.099 C 
ATOM     41  N   UNL     1      14.628  -6.227  14.719  1.00  0.00    -0.304 NA
ATOM     42  C   UNL     1      15.517  -5.080  14.531  1.00  0.00    +0.105 C 
ENDBRANCH  35  36
ENDBRANCH  33  35
ENDBRANCH  31  33
ENDBRANCH   4  31
TORSDOF 9
ENDMDL
MODEL 7
REMARK VINA RESULT:    -2.572      5.879     11.623
REMARK INTER + INTRA:          -5.453
REMARK INTER:                  -4.547
REMARK INTRA:                  -0.906
REMARK UNBOUND:                -1.529
REMARK SMILES COC(=O)c1ccc2c(c1)NC(=O)/C2=C(\Nc1ccc(N(C)C(=O)CN2CCN(C)CC2)cc1)c1ccccc1
REMARK SMILES IDX 17 1 18 2 19 3 20 4 33 5 34 6 16 7 15 9 5 10 6 11 10 12 7 13
REMARK SMILES IDX 9 14 8 15 11 16 14 17 12 18 13 19 3 21 4 22 2 23 1 24 35 25
REMARK SMILES IDX 36 26 40 27 37 28 39 29 38 30 21 31 22 32 23 33 24 34 25 35
REMARK SMILES IDX 26 36 27 37 32 38 28 39 31 40 29 41 30 42
REMARK H PARENT 16 8 11 20
ROOT
ATOM      1  C   UNL     1      21.672  -2.911  19.445  1.00  0.00    +0.039 A 
ATOM      2  C   UNL     1      23.053  -2.747  19.454  1.00  0.00    +0.028 A 
ATOM      3  C   UNL     1      23.688  -1.888  20.371  1.00  0.00    +0.028 A 
ATOM      4  C   UNL     1      22.965  -1.136  21.310  1.00  0.00    +0.043 A 
ATOM      5  C   UNL     1      21.578  -1.313  21.306  1.00  0.00    +0.028 A 
ATOM      6  C   UNL     1      20.948  -2.172  20.390  1.00  0.00    +0.028 A 
ENDROOT
BRANCH   1   7
ATOM      7  N   UNL     1      20.947  -3.705  18.542  1.00  0.00    -0.354 N 
ATOM      8  H   UNL     1      20.632  -4.585  18.967  1.00  0.00    +0.167 HD
BRANCH   7   9
ATOM      9  C   UNL     1      20.593  -3.602  17.199  1.00  0.00    +0.059 C 
ATOM     10  C   UNL     1      17.228  -4.769  13.140  1.00  0.00    +0.062 A 
ATOM     11  C   UNL     1      18.280  -3.833  13.050  1.00  0.00    +0.016 A 
ATOM     12  C   UNL     1      16.994  -5.442  14.346  1.00  0.00    +0.042 A 
ATOM     13  C   UNL     1      19.111  -3.567  14.150  1.00  0.00    +0.012 A 
ATOM     14  C   UNL     1      17.829  -5.159  15.410  1.00  0.00    +0.050 A 
ATOM     15  C   UNL     1      18.891  -4.248  15.335  1.00  0.00    +0.013 A 
ATOM     16  N   UNL     1      17.731  -5.701  16.686  1.00  0.00    -0.321 N 
ATOM     17  C   UNL     1      19.518  -4.240  16.673  1.00  0.00    +0.073 C 
ATOM     18  C   UNL     1      18.698  -5.185  17.526  1.00  0.00    +0.258 C 
ATOM     19  O   UNL     1      18.852  -5.437  18.708  1.00  0.00    -0.269 OA
ATOM     20  H   UNL     1      17.036  -6.362  16.997  1.00  0.00    +0.170 HD
BRANCH  10  21
ATOM     21  C   UNL     1      16.330  -5.071  11.992  1.00  0.00    +0.337 C 
ATOM     22  O   UNL     1      16.716  -5.118  10.835  1.00  0.00    -0.246 OA
BRANCH  21  23
ATOM     23  O   UNL     1      15.059  -5.278  12.416  1.00  0.00    -0.465 OA
ATOM     24  C   UNL     1      14.324  -4.076  12.655  1.00  0.00    +0.282 C 
ENDBRANCH  21  23
ENDBRANCH  10  21
BRANCH   9  25
ATOM     25  C   UNL     1      21.369  -2.699  16.326  1.00  0.00    -0.001 A 
ATOM     26  C   UNL     1      22.132  -3.214  15.266  1.00  0.00    +0.010 A 
ATOM     27  C   UNL     1      21.345  -1.314  16.542  1.00  0.00    +0.010 A 
ATOM     28  C   UNL     1      22.856  -2.356  14.435  1.00  0.00    +0.001 A 
ATOM     29  C   UNL     1      22.069  -0.458  15.711  1.00  0.00    +0.001 A 
ATOM     30  C   UNL     1      22.822  -0.979  14.658  1.00  0.00    +0.000 A 
ENDBRANCH   9  25
ENDBRANCH   7   9
ENDBRANCH   1   7
BRANCH   4  31
ATOM     31  N   UNL     1      23.632  -0.275  22.264  1.00  0.00    -0.314 N 
ATOM     32  C   UNL     1      22.852   0.183  23.415  1.00  0.00    +0.153 C 
BRANCH  31  33
ATOM     33  C   UNL     1      25.007   0.033  22.158  1.00  0.00    +0.240 C 
ATOM     34  O   UNL     1      25.906  -0.763  22.437  1.00  0.00    -0.273 OA
BRANCH  33  35
ATOM     35  C   UNL     1      25.335   1.465  21.669  1.00  0.00    +0.185 C 
BRANCH  35  36
ATOM     36  N   UNL     1      26.009   2.337  22.649  1.00  0.00    -0.292 NA
ATOM     37  C   UNL     1      26.996   3.250  22.064  1.00  0.00    +0.100 C 
ATOM     38  C   UNL     1      26.557   1.615  23.809  1.00  0.00    +0.100 C 
ATOM     39  C   UNL     1      27.524   4.289  23.092  1.00  0.00    +0.099 C 
ATOM     40  C   UNL     1      27.704   2.364  24.540  1.00  0.00    +0.099 C 
ATOM     41  N   UNL     1      27.623   3.836  24.499  1.00  0.00    -0.304 NA
ATOM     42  C   UNL     1      26.487   4.319  25.285  1.00  0.00    +0.105 C 
ENDBRANCH  35  36
ENDBRANCH  33  35
ENDBRANCH  31  33
ENDBRANCH   4  31
TORSDOF 9
ENDMDL
MODEL 8
REMARK VINA RESULT:    -2.184      3.863      6.309
REMARK INTER + INTRA:          -4.862
REMARK INTER:                  -3.808
REMARK INTRA:                  -1.054
REMARK UNBOUND:                -1.529
REMARK SMILES COC(=O)c1ccc2c(c1)NC(=O)/C2=C(\Nc1ccc(N(C)C(=O)CN2CCN(C)CC2)cc1)c1ccccc1
REMARK SMILES IDX 17 1 18 2 19 3 20 4 33 5 34 6 16 7 15 9 5 10 6 11 10 12 7 13
REMARK SMILES IDX 9 14 8 15 11 16 14 17 12 18 13 19 3 21 4 22 2 23 1 24 35 25
REMARK SMILES IDX 36 26 40 27 37 28 39 29 38 30 21 31 22 32 23 33 24 34 25 35
REMARK SMILES IDX 26 36 27 37 32 38 28 39 31 40 29 41 30 42
REMARK H PARENT 16 8 11 20
ROOT
ATOM      1  C   UNL     1      18.698  -4.733  15.051  1.00  0.00    +0.039 A 
ATOM      2  C   UNL     1      18.412  -3.793  14.068  1.00  0.00    +0.028 A 
ATOM      3  C   UNL     1      17.305  -3.936  13.209  1.00  0.00    +0.028 A 
ATOM      4  C   UNL     1      16.445  -5.041  13.283  1.00  0.00    +0.043 A 
ATOM      5  C   UNL     1      16.728  -5.979  14.282  1.00  0.00    +0.028 A 
ATOM      6  C   UNL     1      17.832  -5.831  15.137  1.00  0.00    +0.028 A 
ENDROOT
BRANCH   1   7
ATOM      7  N   UNL     1      19.801  -4.701  15.920  1.00  0.00    -0.354 N 
ATOM      8  H   UNL     1      20.081  -5.642  16.223  1.00  0.00    +0.167 HD
BRANCH   7   9
ATOM      9  C   UNL     1      20.574  -3.698  16.499  1.00  0.00    +0.059 C 
ATOM     10  C   UNL     1      22.575  -1.276  20.892  1.00  0.00    +0.062 A 
ATOM     11  C   UNL     1      22.978  -0.979  19.572  1.00  0.00    +0.016 A 
ATOM     12  C   UNL     1      21.615  -2.270  21.120  1.00  0.00    +0.042 A 
ATOM     13  C   UNL     1      22.426  -1.657  18.474  1.00  0.00    +0.012 A 
ATOM     14  C   UNL     1      21.089  -2.919  20.020  1.00  0.00    +0.050 A 
ATOM     15  C   UNL     1      21.462  -2.625  18.701  1.00  0.00    +0.013 A 
ATOM     16  N   UNL     1      20.155  -3.948  20.052  1.00  0.00    -0.321 N 
ATOM     17  C   UNL     1      20.678  -3.536  17.842  1.00  0.00    +0.073 C 
ATOM     18  C   UNL     1      19.865  -4.401  18.781  1.00  0.00    +0.258 C 
ATOM     19  O   UNL     1      19.112  -5.312  18.482  1.00  0.00    -0.269 OA
ATOM     20  H   UNL     1      19.751  -4.354  20.882  1.00  0.00    +0.170 HD
BRANCH  10  21
ATOM     21  C   UNL     1      23.143  -0.575  22.075  1.00  0.00    +0.337 C 
ATOM     22  O   UNL     1      22.543   0.291  22.692  1.00  0.00    -0.246 OA
BRANCH  21  23
ATOM     23  O   UNL     1      24.389  -1.031  22.352  1.00  0.00    -0.465 OA
ATOM     24  C   UNL     1      25.421  -0.067  22.138  1.00  0.00    +0.282 C 
ENDBRANCH  21  23
ENDBRANCH  10  21
BRANCH   9  25
ATOM     25  C   UNL     1      21.378  -2.823  15.623  1.00  0.00    -0.001 A 
ATOM     26  C   UNL     1      21.323  -1.427  15.764  1.00  0.00    +0.010 A 
ATOM     27  C   UNL     1      22.213  -3.380  14.644  1.00  0.00    +0.010 A 
ATOM     28  C   UNL     1      22.094  -0.605  14.940  1.00  0.00    +0.001 A 
ATOM     29  C   UNL     1      22.983  -2.555  13.822  1.00  0.00    +0.001 A 
ATOM     30  C   UNL     1      22.924  -1.169  13.972  1.00  0.00    +0.000 A 
ENDBRANCH   9  25
ENDBRANCH   7   9
ENDBRANCH   1   7
BRANCH   4  31
ATOM     31  N   UNL     1      15.295  -5.164  12.411  1.00  0.00    -0.314 N 
ATOM     32  C   UNL     1      14.377  -4.026  12.346  1.00  0.00    +0.153 C 
BRANCH  31  33
ATOM     33  C   UNL     1      15.111  -6.286  11.572  1.00  0.00    +0.240 C 
ATOM     34  O   UNL     1      14.197  -7.101  11.716  1.00  0.00    -0.273 OA
BRANCH  33  35
ATOM     35  C   UNL     1      16.150  -6.448  10.436  1.00  0.00    +0.185 C 
BRANCH  35  36
ATOM     36  N   UNL     1      17.360  -7.218  10.780  1.00  0.00    -0.292 NA
ATOM     37  C   UNL     1      17.171  -8.182  11.868  1.00  0.00    +0.100 C 
ATOM     38  C   UNL     1      18.554  -6.383  10.995  1.00  0.00    +0.100 C 
ATOM     39  C   UNL     1      18.401  -9.113  12.054  1.00  0.00    +0.099 C 
ATOM     40  C   UNL     1      19.650  -7.054  11.867  1.00  0.00    +0.099 C 
ATOM     41  N   UNL     1      19.728  -8.523  11.762  1.00  0.00    -0.304 NA
ATOM     42  C   UNL     1      20.200  -8.927  10.437  1.00  0.00    +0.105 C 
ENDBRANCH  35  36
ENDBRANCH  33  35
ENDBRANCH  31  33
ENDBRANCH   4  31
TORSDOF 9
ENDMDL
MODEL 9
REMARK VINA RESULT:    -2.127      3.897      6.319
REMARK INTER + INTRA:          -4.774
REMARK INTER:                  -4.173
REMARK INTRA:                  -0.602
REMARK UNBOUND:                -1.529
REMARK SMILES COC(=O)c1ccc2c(c1)NC(=O)/C2=C(\Nc1ccc(N(C)C(=O)CN2CCN(C)CC2)cc1)c1ccccc1
REMARK SMILES IDX 17 1 18 2 19 3 20 4 33 5 34 6 16 7 15 9 5 10 6 11 10 12 7 13
REMARK SMILES IDX 9 14 8 15 11 16 14 17 12 18 13 19 3 21 4 22 2 23 1 24 35 25
REMARK SMILES IDX 36 26 40 27 37 28 39 29 38 30 21 31 22 32 23 33 24 34 25 35
REMARK SMILES IDX 26 36 27 37 32 38 28 39 31 40 29 41 30 42
REMARK H PARENT 16 8 11 20
ROOT
ATOM      1  C   UNL     1      19.742  -4.703  14.615  1.00  0.00    +0.039 A 
ATOM      2  C   UNL     1      19.612  -4.183  13.333  1.00  0.00    +0.028 A 
ATOM      3  C   UNL     1      19.688  -5.004  12.192  1.00  0.00    +0.028 A 
ATOM      4  C   UNL     1      19.919  -6.385  12.284  1.00  0.00    +0.043 A 
ATOM      5  C   UNL     1      20.036  -6.907  13.576  1.00  0.00    +0.028 A 
ATOM      6  C   UNL     1      19.958  -6.084  14.711  1.00  0.00    +0.028 A 
ENDROOT
BRANCH   1   7
ATOM      7  N   UNL     1      19.728  -3.960  15.807  1.00  0.00    -0.354 N 
ATOM      8  H   UNL     1      18.830  -4.036  16.300  1.00  0.00    +0.167 HD
BRANCH   7   9
ATOM      9  C   UNL     1      20.625  -3.112  16.453  1.00  0.00    +0.059 C 
ATOM     10  C   UNL     1      22.991  -1.377  20.986  1.00  0.00    +0.062 A 
ATOM     11  C   UNL     1      23.395  -0.997  19.688  1.00  0.00    +0.016 A 
ATOM     12  C   UNL     1      21.929  -2.274  21.151  1.00  0.00    +0.042 A 
ATOM     13  C   UNL     1      22.744  -1.497  18.550  1.00  0.00    +0.012 A 
ATOM     14  C   UNL     1      21.307  -2.748  20.012  1.00  0.00    +0.050 A 
ATOM     15  C   UNL     1      21.681  -2.369  18.716  1.00  0.00    +0.013 A 
ATOM     16  N   UNL     1      20.262  -3.664  19.978  1.00  0.00    -0.321 N 
ATOM     17  C   UNL     1      20.777  -3.096  17.801  1.00  0.00    +0.073 C 
ATOM     18  C   UNL     1      19.892  -3.953  18.679  1.00  0.00    +0.258 C 
ATOM     19  O   UNL     1      19.032  -4.740  18.321  1.00  0.00    -0.269 OA
ATOM     20  H   UNL     1      19.833  -4.102  20.778  1.00  0.00    +0.170 HD
BRANCH  10  21
ATOM     21  C   UNL     1      23.663  -0.864  22.211  1.00  0.00    +0.337 C 
ATOM     22  O   UNL     1      23.134  -0.087  22.990  1.00  0.00    -0.246 OA
BRANCH  21  23
ATOM     23  O   UNL     1      24.914  -1.377  22.324  1.00  0.00    -0.465 OA
ATOM     24  C   UNL     1      25.912  -0.405  22.641  1.00  0.00    +0.282 C 
ENDBRANCH  21  23
ENDBRANCH  10  21
BRANCH   9  25
ATOM     25  C   UNL     1      21.503  -2.250  15.637  1.00  0.00    -0.001 A 
ATOM     26  C   UNL     1      22.235  -2.788  14.566  1.00  0.00    +0.010 A 
ATOM     27  C   UNL     1      21.608  -0.881  15.920  1.00  0.00    +0.010 A 
ATOM     28  C   UNL     1      23.055  -1.966  13.791  1.00  0.00    +0.001 A 
ATOM     29  C   UNL     1      22.429  -0.062  15.143  1.00  0.00    +0.001 A 
ATOM     30  C   UNL     1      23.150  -0.605  14.079  1.00  0.00    +0.000 A 
ENDBRANCH   9  25
ENDBRANCH   7   9
ENDBRANCH   1   7
BRANCH   4  31
ATOM     31  N   UNL     1      19.970  -7.223  11.104  1.00  0.00    -0.314 N 
ATOM     32  C   UNL     1      21.265  -7.364  10.436  1.00  0.00    +0.153 C 
BRANCH  31  33
ATOM     33  C   UNL     1      18.850  -7.965  10.665  1.00  0.00    +0.240 C 
ATOM     34  O   UNL     1      18.875  -9.180  10.463  1.00  0.00    -0.273 OA
BRANCH  33  35
ATOM     35  C   UNL     1      17.556  -7.146  10.436  1.00  0.00    +0.185 C 
BRANCH  35  36
ATOM     36  N   UNL     1      16.845  -6.718  11.655  1.00  0.00    -0.292 NA
ATOM     37  C   UNL     1      16.533  -7.809  12.584  1.00  0.00    +0.100 C 
ATOM     38  C   UNL     1      15.666  -5.876  11.390  1.00  0.00    +0.100 C 
ATOM     39  C   UNL     1      15.979  -7.290  13.940  1.00  0.00    +0.099 C 
ATOM     40  C   UNL     1      14.617  -5.874  12.534  1.00  0.00    +0.099 C 
ATOM     41  N   UNL     1      15.164  -6.054  13.893  1.00  0.00    -0.304 NA
ATOM     42  C   UNL     1      15.955  -4.891  14.295  1.00  0.00    +0.105 C 
ENDBRANCH  35  36
ENDBRANCH  33  35
ENDBRANCH  31  33
ENDBRANCH   4  31
TORSDOF 9
ENDMDL
