MODEL 1
REMARK VINA RESULT:    -8.991      0.000      0.000
REMARK INTER + INTRA:         -11.778
REMARK INTER:                 -11.356
REMARK INTRA:                  -0.422
REMARK UNBOUND:                -0.422
REMARK SMILES Cn1cc(-c2cc3c(N4CCN(c5ncc([C@@](C)(N)c6ccc(F)cc6)cn5)CC4)ncnn3c2)cn1
REMARK SMILES IDX 13 1 14 2 15 3 16 4 27 5 28 6 12 7 5 8 6 9 35 10 7 11 34 12
REMARK SMILES IDX 8 13 33 14 9 15 31 16 32 17 10 18 30 19 11 20 29 21 4 22
REMARK SMILES IDX 2 23 3 24 37 25 36 26 1 27 17 28 18 29 19 30 20 33 21 34
REMARK SMILES IDX 26 35 22 36 25 37 23 38 24 39
REMARK H PARENT 19 31 19 32
ROOT
ATOM      1  C   UNL     1     -38.814 157.797   2.798  1.00  0.00    +0.225 A 
ATOM      2  N   UNL     1     -38.053 158.383   1.861  1.00  0.00    -0.221 NA
ATOM      3  C   UNL     1     -38.661 159.193   0.967  1.00  0.00    +0.122 A 
ATOM      4  C   UNL     1     -40.015 159.444   0.938  1.00  0.00    +0.013 A 
ATOM      5  C   UNL     1     -40.704 158.809   1.952  1.00  0.00    +0.122 A 
ATOM      6  N   UNL     1     -40.138 157.996   2.869  1.00  0.00    -0.221 NA
ENDROOT
BRANCH   1   7
ATOM      7  N   UNL     1     -38.217 156.943   3.702  1.00  0.00    -0.337 N 
ATOM      8  C   UNL     1     -35.774 151.160   6.842  1.00  0.00    +0.005 A 
ATOM      9  C   UNL     1     -36.326 152.365   6.336  1.00  0.00    +0.042 A 
ATOM     10  C   UNL     1     -34.414 151.353   6.949  1.00  0.00    +0.122 A 
ATOM     11  C   UNL     1     -35.278 153.244   6.128  1.00  0.00    +0.108 A 
ATOM     12  N   UNL     1     -34.132 152.628   6.542  1.00  0.00    -0.235 N 
ATOM     13  C   UNL     1     -35.177 154.595   5.646  1.00  0.00    +0.156 C 
ATOM     14  N   UNL     1     -32.919 153.196   6.561  1.00  0.00    -0.156 NA
ATOM     15  N   UNL     1     -36.236 155.344   5.149  1.00  0.00    -0.351 N 
ATOM     16  N   UNL     1     -33.995 155.145   5.699  1.00  0.00    -0.215 NA
ATOM     17  C   UNL     1     -32.921 154.424   6.150  1.00  0.00    +0.247 C 
ATOM     18  C   UNL     1     -37.344 154.732   4.394  1.00  0.00    +0.139 C 
ATOM     19  C   UNL     1     -36.079 156.802   4.969  1.00  0.00    +0.139 C 
ATOM     20  C   UNL     1     -37.836 155.614   3.226  1.00  0.00    +0.141 C 
ATOM     21  C   UNL     1     -37.434 157.520   4.799  1.00  0.00    +0.141 C 
BRANCH   8  22
ATOM     22  C   UNL     1     -36.520 149.959   7.186  1.00  0.00    +0.021 A 
ATOM     23  N   UNL     1     -37.985 148.337   7.292  1.00  0.00    -0.275 N 
ATOM     24  C   UNL     1     -37.689 149.492   6.629  1.00  0.00    +0.117 A 
ATOM     25  N   UNL     1     -37.089 148.019   8.246  1.00  0.00    -0.181 NA
ATOM     26  C   UNL     1     -36.195 149.011   8.176  1.00  0.00    +0.143 A 
ATOM     27  C   UNL     1     -39.119 147.475   7.067  1.00  0.00    +0.173 C 
ENDBRANCH   8  22
ENDBRANCH   1   7
BRANCH   4  28
ATOM     28  C   UNL     1     -40.689 160.376  -0.060  1.00  0.00    +0.067 C 
ATOM     29  C   UNL     1     -42.125 159.833  -0.260  1.00  0.00    +0.038 C 
BRANCH  28  30
ATOM     30  N   UNL     1     -40.862 161.735   0.493  1.00  0.00    -0.318 NA
ATOM     31  H   UNL     1     -40.171 161.877   1.230  1.00  0.00    +0.120 HD
ATOM     32  H   UNL     1     -41.766 161.793   0.961  1.00  0.00    +0.120 HD
ENDBRANCH  28  30
BRANCH  28  33
ATOM     33  C   UNL     1     -39.883 160.515  -1.371  1.00  0.00    -0.024 A 
ATOM     34  C   UNL     1     -39.679 161.797  -1.933  1.00  0.00    +0.009 A 
ATOM     35  C   UNL     1     -39.350 159.409  -2.061  1.00  0.00    +0.009 A 
ATOM     36  C   UNL     1     -38.965 161.964  -3.121  1.00  0.00    +0.039 A 
ATOM     37  C   UNL     1     -38.638 159.579  -3.252  1.00  0.00    +0.039 A 
ATOM     38  C   UNL     1     -38.451 160.852  -3.770  1.00  0.00    +0.123 A 
ATOM     39  F   UNL     1     -37.768 161.009  -4.911  1.00  0.00    -0.207 F 
ENDBRANCH  28  33
ENDBRANCH   4  28
TORSDOF 5
ENDMDL
MODEL 2
REMARK VINA RESULT:    -8.891      6.911     10.828
REMARK INTER + INTRA:         -11.651
REMARK INTER:                 -10.962
REMARK INTRA:                  -0.689
REMARK UNBOUND:                -0.422
REMARK SMILES Cn1cc(-c2cc3c(N4CCN(c5ncc([C@@](C)(N)c6ccc(F)cc6)cn5)CC4)ncnn3c2)cn1
REMARK SMILES IDX 13 1 14 2 15 3 16 4 27 5 28 6 12 7 5 8 6 9 35 10 7 11 34 12
REMARK SMILES IDX 8 13 33 14 9 15 31 16 32 17 10 18 30 19 11 20 29 21 4 22
REMARK SMILES IDX 2 23 3 24 37 25 36 26 1 27 17 28 18 29 19 30 20 33 21 34
REMARK SMILES IDX 26 35 22 36 25 37 23 38 24 39
REMARK H PARENT 19 31 19 32
ROOT
ATOM      1  C   UNL     1     -38.771 147.147   1.171  1.00  0.00    +0.225 A 
ATOM      2  N   UNL     1     -40.113 147.189   1.192  1.00  0.00    -0.221 NA
ATOM      3  C   UNL     1     -40.785 146.371   0.353  1.00  0.00    +0.122 A 
ATOM      4  C   UNL     1     -40.187 145.510  -0.541  1.00  0.00    +0.013 A 
ATOM      5  C   UNL     1     -38.808 145.531  -0.472  1.00  0.00    +0.122 A 
ATOM      6  N   UNL     1     -38.096 146.327   0.354  1.00  0.00    -0.221 NA
ENDROOT
BRANCH   1   7
ATOM      7  N   UNL     1     -38.066 147.995   1.999  1.00  0.00    -0.337 N 
ATOM      8  C   UNL     1     -36.409 153.201   6.407  1.00  0.00    +0.005 A 
ATOM      9  C   UNL     1     -36.627 152.188   5.438  1.00  0.00    +0.042 A 
ATOM     10  C   UNL     1     -35.938 152.579   7.542  1.00  0.00    +0.122 A 
ATOM     11  C   UNL     1     -36.305 150.978   6.025  1.00  0.00    +0.108 A 
ATOM     12  N   UNL     1     -35.853 151.237   7.287  1.00  0.00    -0.235 N 
ATOM     13  C   UNL     1     -36.307 149.610   5.581  1.00  0.00    +0.156 C 
ATOM     14  N   UNL     1     -35.380 150.317   8.137  1.00  0.00    -0.156 NA
ATOM     15  N   UNL     1     -36.775 149.174   4.348  1.00  0.00    -0.351 N 
ATOM     16  N   UNL     1     -35.815 148.729   6.408  1.00  0.00    -0.215 NA
ATOM     17  C   UNL     1     -35.378 149.118   7.647  1.00  0.00    +0.247 C 
ATOM     18  C   UNL     1     -37.916 149.816   3.670  1.00  0.00    +0.139 C 
ATOM     19  C   UNL     1     -36.451 147.810   3.884  1.00  0.00    +0.139 C 
ATOM     20  C   UNL     1     -38.831 148.806   2.946  1.00  0.00    +0.141 C 
ATOM     21  C   UNL     1     -36.696 147.632   2.371  1.00  0.00    +0.141 C 
BRANCH   8  22
ATOM     22  C   UNL     1     -36.636 154.626   6.216  1.00  0.00    +0.021 A 
ATOM     23  N   UNL     1     -36.616 156.808   6.363  1.00  0.00    -0.275 N 
ATOM     24  C   UNL     1     -36.095 155.677   6.920  1.00  0.00    +0.117 A 
ATOM     25  N   UNL     1     -37.463 156.566   5.344  1.00  0.00    -0.181 NA
ATOM     26  C   UNL     1     -37.470 155.232   5.256  1.00  0.00    +0.143 A 
ATOM     27  C   UNL     1     -36.349 158.171   6.755  1.00  0.00    +0.173 C 
ENDBRANCH   8  22
ENDBRANCH   1   7
BRANCH   4  28
ATOM     28  C   UNL     1     -40.952 144.576  -1.468  1.00  0.00    +0.067 C 
ATOM     29  C   UNL     1     -40.152 143.252  -1.509  1.00  0.00    +0.038 C 
BRANCH  28  30
ATOM     30  N   UNL     1     -42.273 144.214  -0.912  1.00  0.00    -0.318 NA
ATOM     31  H   UNL     1     -42.336 143.197  -0.861  1.00  0.00    +0.120 HD
ATOM     32  H   UNL     1     -43.000 144.493  -1.570  1.00  0.00    +0.120 HD
ENDBRANCH  28  30
BRANCH  28  33
ATOM     33  C   UNL     1     -41.199 145.202  -2.860  1.00  0.00    -0.024 A 
ATOM     34  C   UNL     1     -41.932 144.480  -3.831  1.00  0.00    +0.009 A 
ATOM     35  C   UNL     1     -40.706 146.470  -3.226  1.00  0.00    +0.009 A 
ATOM     36  C   UNL     1     -42.168 145.006  -5.103  1.00  0.00    +0.039 A 
ATOM     37  C   UNL     1     -40.941 146.993  -4.501  1.00  0.00    +0.039 A 
ATOM     38  C   UNL     1     -41.669 146.260  -5.426  1.00  0.00    +0.123 A 
ATOM     39  F   UNL     1     -41.893 146.766  -6.645  1.00  0.00    -0.207 F 
ENDBRANCH  28  33
ENDBRANCH   4  28
TORSDOF 5
ENDMDL
MODEL 3
REMARK VINA RESULT:    -8.841      7.948     12.602
REMARK INTER + INTRA:         -11.589
REMARK INTER:                 -10.829
REMARK INTRA:                  -0.760
REMARK UNBOUND:                -0.422
REMARK SMILES Cn1cc(-c2cc3c(N4CCN(c5ncc([C@@](C)(N)c6ccc(F)cc6)cn5)CC4)ncnn3c2)cn1
REMARK SMILES IDX 13 1 14 2 15 3 16 4 27 5 28 6 12 7 5 8 6 9 35 10 7 11 34 12
REMARK SMILES IDX 8 13 33 14 9 15 31 16 32 17 10 18 30 19 11 20 29 21 4 22
REMARK SMILES IDX 2 23 3 24 37 25 36 26 1 27 17 28 18 29 19 30 20 33 21 34
REMARK SMILES IDX 26 35 22 36 25 37 23 38 24 39
REMARK H PARENT 19 31 19 32
ROOT
ATOM      1  C   UNL     1     -38.173 148.586   3.476  1.00  0.00    +0.225 A 
ATOM      2  N   UNL     1     -38.660 149.281   4.516  1.00  0.00    -0.221 NA
ATOM      3  C   UNL     1     -37.778 149.829   5.380  1.00  0.00    +0.122 A 
ATOM      4  C   UNL     1     -36.409 149.706   5.279  1.00  0.00    +0.013 A 
ATOM      5  C   UNL     1     -36.012 148.989   4.168  1.00  0.00    +0.122 A 
ATOM      6  N   UNL     1     -36.857 148.429   3.277  1.00  0.00    -0.221 NA
ENDROOT
BRANCH   1   7
ATOM      7  N   UNL     1     -39.058 147.994   2.598  1.00  0.00    -0.337 N 
ATOM      8  C   UNL     1     -41.858 145.093  -3.148  1.00  0.00    +0.005 A 
ATOM      9  C   UNL     1     -41.412 145.762  -1.978  1.00  0.00    +0.042 A 
ATOM     10  C   UNL     1     -42.222 143.819  -2.770  1.00  0.00    +0.122 A 
ATOM     11  C   UNL     1     -41.496 144.863  -0.931  1.00  0.00    +0.108 A 
ATOM     12  N   UNL     1     -42.026 143.704  -1.421  1.00  0.00    -0.235 N 
ATOM     13  C   UNL     1     -41.204 144.925   0.476  1.00  0.00    +0.156 C 
ATOM     14  N   UNL     1     -42.323 142.625  -0.685  1.00  0.00    -0.156 NA
ATOM     15  N   UNL     1     -40.625 146.010   1.122  1.00  0.00    -0.351 N 
ATOM     16  N   UNL     1     -41.528 143.878   1.185  1.00  0.00    -0.215 NA
ATOM     17  C   UNL     1     -42.069 142.776   0.575  1.00  0.00    +0.247 C 
ATOM     18  C   UNL     1     -39.620 146.868   0.467  1.00  0.00    +0.139 C 
ATOM     19  C   UNL     1     -40.651 146.082   2.597  1.00  0.00    +0.139 C 
ATOM     20  C   UNL     1     -38.500 147.321   1.426  1.00  0.00    +0.141 C 
ATOM     21  C   UNL     1     -40.335 147.499   3.119  1.00  0.00    +0.141 C 
BRANCH   8  22
ATOM     22  C   UNL     1     -41.920 145.664  -4.484  1.00  0.00    +0.021 A 
ATOM     23  N   UNL     1     -41.793 146.022  -6.639  1.00  0.00    -0.275 N 
ATOM     24  C   UNL     1     -41.536 145.091  -5.676  1.00  0.00    +0.117 A 
ATOM     25  N   UNL     1     -42.317 147.166  -6.157  1.00  0.00    -0.181 NA
ATOM     26  C   UNL     1     -42.396 146.942  -4.841  1.00  0.00    +0.143 A 
ATOM     27  C   UNL     1     -41.560 145.890  -8.056  1.00  0.00    +0.173 C 
ENDBRANCH   8  22
ENDBRANCH   1   7
BRANCH   4  28
ATOM     28  C   UNL     1     -35.422 150.345   6.245  1.00  0.00    +0.067 C 
ATOM     29  C   UNL     1     -35.864 149.919   7.666  1.00  0.00    +0.038 C 
BRANCH  28  30
ATOM     30  N   UNL     1     -34.061 149.792   6.081  1.00  0.00    -0.318 NA
ATOM     31  H   UNL     1     -33.850 149.737   5.084  1.00  0.00    +0.120 HD
ATOM     32  H   UNL     1     -34.051 148.828   6.409  1.00  0.00    +0.120 HD
ENDBRANCH  28  30
BRANCH  28  33
ATOM     33  C   UNL     1     -35.319 151.875   6.053  1.00  0.00    -0.024 A 
ATOM     34  C   UNL     1     -34.246 152.416   5.305  1.00  0.00    +0.009 A 
ATOM     35  C   UNL     1     -36.244 152.779   6.612  1.00  0.00    +0.009 A 
ATOM     36  C   UNL     1     -34.113 153.792   5.117  1.00  0.00    +0.039 A 
ATOM     37  C   UNL     1     -36.106 154.157   6.424  1.00  0.00    +0.039 A 
ATOM     38  C   UNL     1     -35.045 154.652   5.680  1.00  0.00    +0.123 A 
ATOM     39  F   UNL     1     -34.918 155.973   5.503  1.00  0.00    -0.207 F 
ENDBRANCH  28  33
ENDBRANCH   4  28
TORSDOF 5
ENDMDL
MODEL 4
REMARK VINA RESULT:    -8.839      4.191     12.080
REMARK INTER + INTRA:         -11.586
REMARK INTER:                 -10.757
REMARK INTRA:                  -0.830
REMARK UNBOUND:                -0.422
REMARK SMILES Cn1cc(-c2cc3c(N4CCN(c5ncc([C@@](C)(N)c6ccc(F)cc6)cn5)CC4)ncnn3c2)cn1
REMARK SMILES IDX 13 1 14 2 15 3 16 4 27 5 28 6 12 7 5 8 6 9 35 10 7 11 34 12
REMARK SMILES IDX 8 13 33 14 9 15 31 16 32 17 10 18 30 19 11 20 29 21 4 22
REMARK SMILES IDX 2 23 3 24 37 25 36 26 1 27 17 28 18 29 19 30 20 33 21 34
REMARK SMILES IDX 26 35 22 36 25 37 23 38 24 39
REMARK H PARENT 19 31 19 32
ROOT
ATOM      1  C   UNL     1     -37.811 149.393   5.755  1.00  0.00    +0.225 A 
ATOM      2  N   UNL     1     -37.488 148.957   6.983  1.00  0.00    -0.221 NA
ATOM      3  C   UNL     1     -37.882 147.714   7.337  1.00  0.00    +0.122 A 
ATOM      4  C   UNL     1     -38.613 146.869   6.532  1.00  0.00    +0.013 A 
ATOM      5  C   UNL     1     -38.878 147.404   5.287  1.00  0.00    +0.122 A 
ATOM      6  N   UNL     1     -38.500 148.637   4.888  1.00  0.00    -0.221 NA
ENDROOT
BRANCH   1   7
ATOM      7  N   UNL     1     -37.443 150.670   5.384  1.00  0.00    -0.337 N 
ATOM      8  C   UNL     1     -37.679 157.463   3.634  1.00  0.00    +0.005 A 
ATOM      9  C   UNL     1     -37.544 156.071   3.872  1.00  0.00    +0.042 A 
ATOM     10  C   UNL     1     -36.936 158.111   4.595  1.00  0.00    +0.122 A 
ATOM     11  C   UNL     1     -36.742 155.919   4.989  1.00  0.00    +0.108 A 
ATOM     12  N   UNL     1     -36.351 157.164   5.390  1.00  0.00    -0.235 N 
ATOM     13  C   UNL     1     -36.237 154.788   5.721  1.00  0.00    +0.156 C 
ATOM     14  N   UNL     1     -35.506 157.415   6.399  1.00  0.00    -0.156 NA
ATOM     15  N   UNL     1     -36.573 153.464   5.470  1.00  0.00    -0.351 N 
ATOM     16  N   UNL     1     -35.392 155.047   6.681  1.00  0.00    -0.215 NA
ATOM     17  C   UNL     1     -35.067 156.344   6.979  1.00  0.00    +0.247 C 
ATOM     18  C   UNL     1     -37.912 153.069   4.998  1.00  0.00    +0.139 C 
ATOM     19  C   UNL     1     -35.772 152.380   6.074  1.00  0.00    +0.139 C 
ATOM     20  C   UNL     1     -38.404 151.746   5.621  1.00  0.00    +0.141 C 
ATOM     21  C   UNL     1     -36.019 151.019   5.393  1.00  0.00    +0.141 C 
BRANCH   8  22
ATOM     22  C   UNL     1     -38.455 158.073   2.564  1.00  0.00    +0.021 A 
ATOM     23  N   UNL     1     -40.026 158.991   1.350  1.00  0.00    -0.275 N 
ATOM     24  C   UNL     1     -39.765 158.491   2.592  1.00  0.00    +0.117 A 
ATOM     25  N   UNL     1     -38.974 158.926   0.512  1.00  0.00    -0.181 NA
ATOM     26  C   UNL     1     -38.016 158.367   1.258  1.00  0.00    +0.143 A 
ATOM     27  C   UNL     1     -41.271 159.553   0.885  1.00  0.00    +0.173 C 
ENDBRANCH   8  22
ENDBRANCH   1   7
BRANCH   4  28
ATOM     28  C   UNL     1     -39.034 145.462   6.931  1.00  0.00    +0.067 C 
ATOM     29  C   UNL     1     -38.164 144.493   6.094  1.00  0.00    +0.038 C 
BRANCH  28  30
ATOM     30  N   UNL     1     -38.696 145.168   8.340  1.00  0.00    -0.318 NA
ATOM     31  H   UNL     1     -38.876 146.003   8.898  1.00  0.00    +0.120 HD
ATOM     32  H   UNL     1     -37.692 145.008   8.415  1.00  0.00    +0.120 HD
ENDBRANCH  28  30
BRANCH  28  33
ATOM     33  C   UNL     1     -40.555 145.236   6.770  1.00  0.00    -0.024 A 
ATOM     34  C   UNL     1     -41.449 145.805   7.709  1.00  0.00    +0.009 A 
ATOM     35  C   UNL     1     -41.107 144.462   5.732  1.00  0.00    +0.009 A 
ATOM     36  C   UNL     1     -42.828 145.616   7.604  1.00  0.00    +0.039 A 
ATOM     37  C   UNL     1     -42.488 144.272   5.631  1.00  0.00    +0.039 A 
ATOM     38  C   UNL     1     -43.335 144.850   6.565  1.00  0.00    +0.123 A 
ATOM     39  F   UNL     1     -44.658 144.666   6.464  1.00  0.00    -0.207 F 
ENDBRANCH  28  33
ENDBRANCH   4  28
TORSDOF 5
ENDMDL
MODEL 5
REMARK VINA RESULT:    -8.701      6.922     11.489
REMARK INTER + INTRA:         -11.412
REMARK INTER:                 -10.644
REMARK INTRA:                  -0.767
REMARK UNBOUND:                -0.422
REMARK SMILES Cn1cc(-c2cc3c(N4CCN(c5ncc([C@@](C)(N)c6ccc(F)cc6)cn5)CC4)ncnn3c2)cn1
REMARK SMILES IDX 13 1 14 2 15 3 16 4 27 5 28 6 12 7 5 8 6 9 35 10 7 11 34 12
REMARK SMILES IDX 8 13 33 14 9 15 31 16 32 17 10 18 30 19 11 20 29 21 4 22
REMARK SMILES IDX 2 23 3 24 37 25 36 26 1 27 17 28 18 29 19 30 20 33 21 34
REMARK SMILES IDX 26 35 22 36 25 37 23 38 24 39
REMARK H PARENT 19 31 19 32
ROOT
ATOM      1  C   UNL     1     -37.839 149.754   4.344  1.00  0.00    +0.225 A 
ATOM      2  N   UNL     1     -36.621 149.245   4.588  1.00  0.00    -0.221 NA
ATOM      3  C   UNL     1     -35.768 149.977   5.337  1.00  0.00    +0.122 A 
ATOM      4  C   UNL     1     -36.053 151.223   5.851  1.00  0.00    +0.013 A 
ATOM      5  C   UNL     1     -37.334 151.647   5.558  1.00  0.00    +0.122 A 
ATOM      6  N   UNL     1     -38.222 150.948   4.819  1.00  0.00    -0.221 NA
ENDROOT
BRANCH   1   7
ATOM      7  N   UNL     1     -38.715 149.035   3.558  1.00  0.00    -0.337 N 
ATOM      8  C   UNL     1     -41.414 145.155  -1.632  1.00  0.00    +0.005 A 
ATOM      9  C   UNL     1     -40.985 146.026  -0.598  1.00  0.00    +0.042 A 
ATOM     10  C   UNL     1     -41.859 144.000  -1.027  1.00  0.00    +0.122 A 
ATOM     11  C   UNL     1     -41.159 145.361   0.602  1.00  0.00    +0.108 A 
ATOM     12  N   UNL     1     -41.726 144.151   0.326  1.00  0.00    -0.235 N 
ATOM     13  C   UNL     1     -40.925 145.694   1.982  1.00  0.00    +0.156 C 
ATOM     14  N   UNL     1     -42.110 143.256   1.245  1.00  0.00    -0.156 NA
ATOM     15  N   UNL     1     -40.318 146.861   2.427  1.00  0.00    -0.351 N 
ATOM     16  N   UNL     1     -41.332 144.825   2.867  1.00  0.00    -0.215 NA
ATOM     17  C   UNL     1     -41.902 143.647   2.462  1.00  0.00    +0.247 C 
ATOM     18  C   UNL     1     -39.244 147.526   1.667  1.00  0.00    +0.139 C 
ATOM     19  C   UNL     1     -40.403 147.230   3.855  1.00  0.00    +0.139 C 
ATOM     20  C   UNL     1     -38.143 148.117   2.574  1.00  0.00    +0.141 C 
ATOM     21  C   UNL     1     -40.037 148.708   4.100  1.00  0.00    +0.141 C 
BRANCH   8  22
ATOM     22  C   UNL     1     -41.390 145.447  -3.057  1.00  0.00    +0.021 A 
ATOM     23  N   UNL     1     -41.626 145.392  -5.232  1.00  0.00    -0.275 N 
ATOM     24  C   UNL     1     -41.898 144.694  -4.091  1.00  0.00    +0.117 A 
ATOM     25  N   UNL     1     -40.973 146.549  -5.012  1.00  0.00    -0.181 NA
ATOM     26  C   UNL     1     -40.833 146.581  -3.683  1.00  0.00    +0.143 A 
ATOM     27  C   UNL     1     -41.963 145.011  -6.582  1.00  0.00    +0.173 C 
ENDBRANCH   8  22
ENDBRANCH   1   7
BRANCH   4  28
ATOM     28  C   UNL     1     -35.093 152.032   6.712  1.00  0.00    +0.067 C 
ATOM     29  C   UNL     1     -35.416 151.669   8.182  1.00  0.00    +0.038 C 
BRANCH  28  30
ATOM     30  N   UNL     1     -33.691 151.613   6.508  1.00  0.00    -0.318 NA
ATOM     31  H   UNL     1     -33.529 150.753   7.032  1.00  0.00    +0.120 HD
ATOM     32  H   UNL     1     -33.072 152.303   6.932  1.00  0.00    +0.120 HD
ENDBRANCH  28  30
BRANCH  28  33
ATOM     33  C   UNL     1     -35.166 153.545   6.409  1.00  0.00    -0.024 A 
ATOM     34  C   UNL     1     -34.455 154.073   5.305  1.00  0.00    +0.009 A 
ATOM     35  C   UNL     1     -35.901 154.449   7.203  1.00  0.00    +0.009 A 
ATOM     36  C   UNL     1     -34.487 155.436   5.005  1.00  0.00    +0.039 A 
ATOM     37  C   UNL     1     -35.929 155.813   6.900  1.00  0.00    +0.039 A 
ATOM     38  C   UNL     1     -35.225 156.295   5.807  1.00  0.00    +0.123 A 
ATOM     39  F   UNL     1     -35.256 157.602   5.522  1.00  0.00    -0.207 F 
ENDBRANCH  28  33
ENDBRANCH   4  28
TORSDOF 5
ENDMDL
MODEL 6
REMARK VINA RESULT:    -8.528      4.695     12.711
REMARK INTER + INTRA:         -11.194
REMARK INTER:                 -10.469
REMARK INTRA:                  -0.724
REMARK UNBOUND:                -0.422
REMARK SMILES Cn1cc(-c2cc3c(N4CCN(c5ncc([C@@](C)(N)c6ccc(F)cc6)cn5)CC4)ncnn3c2)cn1
REMARK SMILES IDX 13 1 14 2 15 3 16 4 27 5 28 6 12 7 5 8 6 9 35 10 7 11 34 12
REMARK SMILES IDX 8 13 33 14 9 15 31 16 32 17 10 18 30 19 11 20 29 21 4 22
REMARK SMILES IDX 2 23 3 24 37 25 36 26 1 27 17 28 18 29 19 30 20 33 21 34
REMARK SMILES IDX 26 35 22 36 25 37 23 38 24 39
REMARK H PARENT 19 31 19 32
ROOT
ATOM      1  C   UNL     1     -36.002 149.906   5.814  1.00  0.00    +0.225 A 
ATOM      2  N   UNL     1     -35.093 149.065   5.295  1.00  0.00    -0.221 NA
ATOM      3  C   UNL     1     -35.135 147.771   5.680  1.00  0.00    +0.122 A 
ATOM      4  C   UNL     1     -36.034 147.257   6.588  1.00  0.00    +0.013 A 
ATOM      5  C   UNL     1     -36.934 148.198   7.049  1.00  0.00    +0.122 A 
ATOM      6  N   UNL     1     -36.934 149.498   6.688  1.00  0.00    -0.221 NA
ENDROOT
BRANCH   1   7
ATOM      7  N   UNL     1     -35.958 151.237   5.456  1.00  0.00    -0.337 N 
ATOM      8  C   UNL     1     -37.850 157.738   3.604  1.00  0.00    +0.005 A 
ATOM      9  C   UNL     1     -37.369 156.430   3.870  1.00  0.00    +0.042 A 
ATOM     10  C   UNL     1     -37.380 158.553   4.610  1.00  0.00    +0.122 A 
ATOM     11  C   UNL     1     -36.644 156.488   5.046  1.00  0.00    +0.108 A 
ATOM     12  N   UNL     1     -36.628 157.788   5.460  1.00  0.00    -0.235 N 
ATOM     13  C   UNL     1     -35.915 155.525   5.829  1.00  0.00    +0.156 C 
ATOM     14  N   UNL     1     -35.960 158.246   6.527  1.00  0.00    -0.156 NA
ATOM     15  N   UNL     1     -35.868 154.161   5.571  1.00  0.00    -0.351 N 
ATOM     16  N   UNL     1     -35.245 155.991   6.847  1.00  0.00    -0.215 NA
ATOM     17  C   UNL     1     -35.299 157.326   7.153  1.00  0.00    +0.247 C 
ATOM     18  C   UNL     1     -37.015 153.430   5.003  1.00  0.00    +0.139 C 
ATOM     19  C   UNL     1     -34.857 153.324   6.249  1.00  0.00    +0.139 C 
ATOM     20  C   UNL     1     -37.185 152.018   5.605  1.00  0.00    +0.141 C 
ATOM     21  C   UNL     1     -34.682 151.951   5.568  1.00  0.00    +0.141 C 
BRANCH   8  22
ATOM     22  C   UNL     1     -38.674 158.129   2.470  1.00  0.00    +0.021 A 
ATOM     23  N   UNL     1     -39.422 158.678   0.489  1.00  0.00    -0.275 N 
ATOM     24  C   UNL     1     -38.291 158.321   1.163  1.00  0.00    +0.117 A 
ATOM     25  N   UNL     1     -40.519 158.733   1.270  1.00  0.00    -0.181 NA
ATOM     26  C   UNL     1     -40.058 158.394   2.478  1.00  0.00    +0.143 A 
ATOM     27  C   UNL     1     -39.535 158.985  -0.916  1.00  0.00    +0.173 C 
ENDBRANCH   8  22
ENDBRANCH   1   7
BRANCH   4  28
ATOM     28  C   UNL     1     -36.089 145.793   7.000  1.00  0.00    +0.067 C 
ATOM     29  C   UNL     1     -37.585 145.398   7.009  1.00  0.00    +0.038 C 
BRANCH  28  30
ATOM     30  N   UNL     1     -35.462 144.916   5.989  1.00  0.00    -0.318 NA
ATOM     31  H   UNL     1     -34.935 145.497   5.337  1.00  0.00    +0.120 HD
ATOM     32  H   UNL     1     -36.193 144.480   5.427  1.00  0.00    +0.120 HD
ENDBRANCH  28  30
BRANCH  28  33
ATOM     33  C   UNL     1     -35.364 145.533   8.341  1.00  0.00    -0.024 A 
ATOM     34  C   UNL     1     -35.696 144.388   9.104  1.00  0.00    +0.009 A 
ATOM     35  C   UNL     1     -34.388 146.403   8.863  1.00  0.00    +0.009 A 
ATOM     36  C   UNL     1     -35.072 144.123  10.325  1.00  0.00    +0.039 A 
ATOM     37  C   UNL     1     -33.767 146.137  10.087  1.00  0.00    +0.039 A 
ATOM     38  C   UNL     1     -34.112 145.002  10.805  1.00  0.00    +0.123 A 
ATOM     39  F   UNL     1     -33.514 144.751  11.976  1.00  0.00    -0.207 F 
ENDBRANCH  28  33
ENDBRANCH   4  28
TORSDOF 5
ENDMDL
MODEL 7
REMARK VINA RESULT:    -8.500      6.990     10.553
REMARK INTER + INTRA:         -11.158
REMARK INTER:                 -10.396
REMARK INTRA:                  -0.761
REMARK UNBOUND:                -0.422
REMARK SMILES Cn1cc(-c2cc3c(N4CCN(c5ncc([C@@](C)(N)c6ccc(F)cc6)cn5)CC4)ncnn3c2)cn1
REMARK SMILES IDX 13 1 14 2 15 3 16 4 27 5 28 6 12 7 5 8 6 9 35 10 7 11 34 12
REMARK SMILES IDX 8 13 33 14 9 15 31 16 32 17 10 18 30 19 11 20 29 21 4 22
REMARK SMILES IDX 2 23 3 24 37 25 36 26 1 27 17 28 18 29 19 30 20 33 21 34
REMARK SMILES IDX 26 35 22 36 25 37 23 38 24 39
REMARK H PARENT 19 31 19 32
ROOT
ATOM      1  C   UNL     1     -39.630 146.598   1.699  1.00  0.00    +0.225 A 
ATOM      2  N   UNL     1     -38.682 146.068   0.910  1.00  0.00    -0.221 NA
ATOM      3  C   UNL     1     -39.081 145.335  -0.152  1.00  0.00    +0.122 A 
ATOM      4  C   UNL     1     -40.397 145.075  -0.470  1.00  0.00    +0.013 A 
ATOM      5  C   UNL     1     -41.290 145.679   0.392  1.00  0.00    +0.122 A 
ATOM      6  N   UNL     1     -40.937 146.423   1.461  1.00  0.00    -0.221 NA
ENDROOT
BRANCH   1   7
ATOM      7  N   UNL     1     -39.242 147.326   2.806  1.00  0.00    -0.337 N 
ATOM      8  C   UNL     1     -35.378 150.194   7.916  1.00  0.00    +0.005 A 
ATOM      9  C   UNL     1     -36.255 149.578   6.987  1.00  0.00    +0.042 A 
ATOM     10  C   UNL     1     -35.487 151.555   7.732  1.00  0.00    +0.122 A 
ATOM     11  C   UNL     1     -36.850 150.586   6.249  1.00  0.00    +0.108 A 
ATOM     12  N   UNL     1     -36.403 151.778   6.741  1.00  0.00    -0.235 N 
ATOM     13  C   UNL     1     -37.814 150.619   5.182  1.00  0.00    +0.156 C 
ATOM     14  N   UNL     1     -36.815 152.983   6.325  1.00  0.00    -0.156 NA
ATOM     15  N   UNL     1     -38.334 149.500   4.544  1.00  0.00    -0.351 N 
ATOM     16  N   UNL     1     -38.229 151.798   4.809  1.00  0.00    -0.215 NA
ATOM     17  C   UNL     1     -37.711 152.925   5.392  1.00  0.00    +0.247 C 
ATOM     18  C   UNL     1     -37.536 148.280   4.324  1.00  0.00    +0.139 C 
ATOM     19  C   UNL     1     -39.527 149.637   3.684  1.00  0.00    +0.139 C 
ATOM     20  C   UNL     1     -37.817 147.615   2.960  1.00  0.00    +0.141 C 
ATOM     21  C   UNL     1     -40.193 148.279   3.385  1.00  0.00    +0.141 C 
BRANCH   8  22
ATOM     22  C   UNL     1     -34.536 149.503   8.881  1.00  0.00    +0.021 A 
ATOM     23  N   UNL     1     -33.317 148.041   9.958  1.00  0.00    -0.275 N 
ATOM     24  C   UNL     1     -34.051 148.217   8.822  1.00  0.00    +0.117 A 
ATOM     25  N   UNL     1     -33.292 149.125  10.757  1.00  0.00    -0.181 NA
ATOM     26  C   UNL     1     -34.035 150.017  10.093  1.00  0.00    +0.143 A 
ATOM     27  C   UNL     1     -32.605 146.851  10.355  1.00  0.00    +0.173 C 
ENDBRANCH   8  22
ENDBRANCH   1   7
BRANCH   4  28
ATOM     28  C   UNL     1     -40.838 144.266  -1.682  1.00  0.00    +0.067 C 
ATOM     29  C   UNL     1     -39.680 143.288  -1.997  1.00  0.00    +0.038 C 
BRANCH  28  30
ATOM     30  N   UNL     1     -41.999 143.405  -1.371  1.00  0.00    -0.318 NA
ATOM     31  H   UNL     1     -42.849 143.961  -1.462  1.00  0.00    +0.120 HD
ATOM     32  H   UNL     1     -41.960 143.135  -0.389  1.00  0.00    +0.120 HD
ENDBRANCH  28  30
BRANCH  28  33
ATOM     33  C   UNL     1     -41.242 145.165  -2.872  1.00  0.00    -0.024 A 
ATOM     34  C   UNL     1     -42.276 144.747  -3.744  1.00  0.00    +0.009 A 
ATOM     35  C   UNL     1     -40.609 146.391  -3.153  1.00  0.00    +0.009 A 
ATOM     36  C   UNL     1     -42.663 145.525  -4.837  1.00  0.00    +0.039 A 
ATOM     37  C   UNL     1     -40.998 147.167  -4.249  1.00  0.00    +0.039 A 
ATOM     38  C   UNL     1     -42.019 146.730  -5.079  1.00  0.00    +0.123 A 
ATOM     39  F   UNL     1     -42.388 147.477  -6.127  1.00  0.00    -0.207 F 
ENDBRANCH  28  33
ENDBRANCH   4  28
TORSDOF 5
ENDMDL
MODEL 8
REMARK VINA RESULT:    -8.397      6.921     10.713
REMARK INTER + INTRA:         -11.028
REMARK INTER:                 -10.193
REMARK INTRA:                  -0.834
REMARK UNBOUND:                -0.422
REMARK SMILES Cn1cc(-c2cc3c(N4CCN(c5ncc([C@@](C)(N)c6ccc(F)cc6)cn5)CC4)ncnn3c2)cn1
REMARK SMILES IDX 13 1 14 2 15 3 16 4 27 5 28 6 12 7 5 8 6 9 35 10 7 11 34 12
REMARK SMILES IDX 8 13 33 14 9 15 31 16 32 17 10 18 30 19 11 20 29 21 4 22
REMARK SMILES IDX 2 23 3 24 37 25 36 26 1 27 17 28 18 29 19 30 20 33 21 34
REMARK SMILES IDX 26 35 22 36 25 37 23 38 24 39
REMARK H PARENT 19 31 19 32
ROOT
ATOM      1  C   UNL     1     -37.875 150.119   4.352  1.00  0.00    +0.225 A 
ATOM      2  N   UNL     1     -36.765 150.033   5.102  1.00  0.00    -0.221 NA
ATOM      3  C   UNL     1     -36.409 151.113   5.831  1.00  0.00    +0.122 A 
ATOM      4  C   UNL     1     -37.095 152.307   5.843  1.00  0.00    +0.013 A 
ATOM      5  C   UNL     1     -38.228 152.286   5.054  1.00  0.00    +0.122 A 
ATOM      6  N   UNL     1     -38.625 151.230   4.313  1.00  0.00    -0.221 NA
ENDROOT
BRANCH   1   7
ATOM      7  N   UNL     1     -38.240 149.038   3.577  1.00  0.00    -0.337 N 
ATOM      8  C   UNL     1     -39.809 144.967  -1.922  1.00  0.00    +0.005 A 
ATOM      9  C   UNL     1     -39.614 145.739  -0.747  1.00  0.00    +0.042 A 
ATOM     10  C   UNL     1     -38.886 143.945  -1.891  1.00  0.00    +0.122 A 
ATOM     11  C   UNL     1     -38.559 145.175  -0.053  1.00  0.00    +0.108 A 
ATOM     12  N   UNL     1     -38.156 144.066  -0.740  1.00  0.00    -0.235 N 
ATOM     13  C   UNL     1     -37.891 145.477   1.184  1.00  0.00    +0.156 C 
ATOM     14  N   UNL     1     -37.202 143.217  -0.336  1.00  0.00    -0.156 NA
ATOM     15  N   UNL     1     -38.149 146.587   1.978  1.00  0.00    -0.351 N 
ATOM     16  N   UNL     1     -36.985 144.625   1.580  1.00  0.00    -0.215 NA
ATOM     17  C   UNL     1     -36.679 143.537   0.804  1.00  0.00    +0.247 C 
ATOM     18  C   UNL     1     -38.537 147.889   1.405  1.00  0.00    +0.139 C 
ATOM     19  C   UNL     1     -37.627 146.636   3.359  1.00  0.00    +0.139 C 
ATOM     20  C   UNL     1     -37.912 149.085   2.153  1.00  0.00    +0.141 C 
ATOM     21  C   UNL     1     -38.321 147.719   4.210  1.00  0.00    +0.141 C 
BRANCH   8  22
ATOM     22  C   UNL     1     -40.808 145.218  -2.950  1.00  0.00    +0.021 A 
ATOM     23  N   UNL     1     -42.105 146.120  -4.463  1.00  0.00    -0.275 N 
ATOM     24  C   UNL     1     -41.095 146.401  -3.590  1.00  0.00    +0.117 A 
ATOM     25  N   UNL     1     -42.499 144.832  -4.434  1.00  0.00    -0.181 NA
ATOM     26  C   UNL     1     -41.703 144.284  -3.511  1.00  0.00    +0.143 A 
ATOM     27  C   UNL     1     -42.752 147.040  -5.366  1.00  0.00    +0.173 C 
ENDBRANCH   8  22
ENDBRANCH   1   7
BRANCH   4  28
ATOM     28  C   UNL     1     -36.699 153.512   6.685  1.00  0.00    +0.067 C 
ATOM     29  C   UNL     1     -38.020 154.160   7.166  1.00  0.00    +0.038 C 
BRANCH  28  30
ATOM     30  N   UNL     1     -35.993 153.108   7.919  1.00  0.00    -0.318 NA
ATOM     31  H   UNL     1     -35.993 152.090   7.975  1.00  0.00    +0.120 HD
ATOM     32  H   UNL     1     -36.530 153.419   8.727  1.00  0.00    +0.120 HD
ENDBRANCH  28  30
BRANCH  28  33
ATOM     33  C   UNL     1     -35.767 154.480   5.922  1.00  0.00    -0.024 A 
ATOM     34  C   UNL     1     -34.364 154.337   6.038  1.00  0.00    +0.009 A 
ATOM     35  C   UNL     1     -36.250 155.532   5.119  1.00  0.00    +0.009 A 
ATOM     36  C   UNL     1     -33.489 155.198   5.373  1.00  0.00    +0.039 A 
ATOM     37  C   UNL     1     -35.371 156.394   4.457  1.00  0.00    +0.039 A 
ATOM     38  C   UNL     1     -34.001 156.220   4.588  1.00  0.00    +0.123 A 
ATOM     39  F   UNL     1     -33.164 157.048   3.951  1.00  0.00    -0.207 F 
ENDBRANCH  28  33
ENDBRANCH   4  28
TORSDOF 5
ENDMDL
MODEL 9
REMARK VINA RESULT:    -8.338      4.711      9.426
REMARK INTER + INTRA:         -10.953
REMARK INTER:                 -10.429
REMARK INTRA:                  -0.524
REMARK UNBOUND:                -0.422
REMARK SMILES Cn1cc(-c2cc3c(N4CCN(c5ncc([C@@](C)(N)c6ccc(F)cc6)cn5)CC4)ncnn3c2)cn1
REMARK SMILES IDX 13 1 14 2 15 3 16 4 27 5 28 6 12 7 5 8 6 9 35 10 7 11 34 12
REMARK SMILES IDX 8 13 33 14 9 15 31 16 32 17 10 18 30 19 11 20 29 21 4 22
REMARK SMILES IDX 2 23 3 24 37 25 36 26 1 27 17 28 18 29 19 30 20 33 21 34
REMARK SMILES IDX 26 35 22 36 25 37 23 38 24 39
REMARK H PARENT 19 31 19 32
ROOT
ATOM      1  C   UNL     1     -37.582 150.931   6.133  1.00  0.00    +0.225 A 
ATOM      2  N   UNL     1     -38.237 152.056   6.458  1.00  0.00    -0.221 NA
ATOM      3  C   UNL     1     -37.555 153.222   6.413  1.00  0.00    +0.122 A 
ATOM      4  C   UNL     1     -36.224 153.333   6.077  1.00  0.00    +0.013 A 
ATOM      5  C   UNL     1     -35.648 152.123   5.744  1.00  0.00    +0.122 A 
ATOM      6  N   UNL     1     -36.291 150.936   5.770  1.00  0.00    -0.221 NA
ENDROOT
BRANCH   1   7
ATOM      7  N   UNL     1     -38.252 149.727   6.201  1.00  0.00    -0.337 N 
ATOM      8  C   UNL     1     -43.307 144.911   6.928  1.00  0.00    +0.005 A 
ATOM      9  C   UNL     1     -42.205 145.802   6.871  1.00  0.00    +0.042 A 
ATOM     10  C   UNL     1     -43.354 144.251   5.720  1.00  0.00    +0.122 A 
ATOM     11  C   UNL     1     -41.633 145.673   5.618  1.00  0.00    +0.108 A 
ATOM     12  N   UNL     1     -42.318 144.701   4.948  1.00  0.00    -0.235 N 
ATOM     13  C   UNL     1     -40.511 146.281   4.955  1.00  0.00    +0.156 C 
ATOM     14  N   UNL     1     -42.008 144.246   3.727  1.00  0.00    -0.156 NA
ATOM     15  N   UNL     1     -39.739 147.311   5.478  1.00  0.00    -0.351 N 
ATOM     16  N   UNL     1     -40.203 145.807   3.779  1.00  0.00    -0.215 NA
ATOM     17  C   UNL     1     -40.964 144.815   3.217  1.00  0.00    +0.247 C 
ATOM     18  C   UNL     1     -40.313 148.362   6.339  1.00  0.00    +0.139 C 
ATOM     19  C   UNL     1     -38.444 147.646   4.851  1.00  0.00    +0.139 C 
ATOM     20  C   UNL     1     -39.708 149.756   6.069  1.00  0.00    +0.141 C 
ATOM     21  C   UNL     1     -37.557 148.512   5.767  1.00  0.00    +0.141 C 
BRANCH   8  22
ATOM     22  C   UNL     1     -44.202 144.734   8.061  1.00  0.00    +0.021 A 
ATOM     23  N   UNL     1     -45.351 144.980   9.906  1.00  0.00    -0.275 N 
ATOM     24  C   UNL     1     -44.435 145.598   9.107  1.00  0.00    +0.117 A 
ATOM     25  N   UNL     1     -45.731 143.769   9.454  1.00  0.00    -0.181 NA
ATOM     26  C   UNL     1     -45.029 143.624   8.326  1.00  0.00    +0.143 A 
ATOM     27  C   UNL     1     -45.916 145.489  11.132  1.00  0.00    +0.173 C 
ENDBRANCH   8  22
ENDBRANCH   1   7
BRANCH   4  28
ATOM     28  C   UNL     1     -35.469 154.653   6.007  1.00  0.00    +0.067 C 
ATOM     29  C   UNL     1     -35.120 155.032   7.467  1.00  0.00    +0.038 C 
BRANCH  28  30
ATOM     30  N   UNL     1     -34.167 154.503   5.324  1.00  0.00    -0.318 NA
ATOM     31  H   UNL     1     -34.317 154.011   4.443  1.00  0.00    +0.120 HD
ATOM     32  H   UNL     1     -33.570 153.887   5.875  1.00  0.00    +0.120 HD
ENDBRANCH  28  30
BRANCH  28  33
ATOM     33  C   UNL     1     -36.259 155.742   5.248  1.00  0.00    -0.024 A 
ATOM     34  C   UNL     1     -36.145 157.095   5.648  1.00  0.00    +0.009 A 
ATOM     35  C   UNL     1     -37.122 155.452   4.173  1.00  0.00    +0.009 A 
ATOM     36  C   UNL     1     -36.851 158.108   4.995  1.00  0.00    +0.039 A 
ATOM     37  C   UNL     1     -37.829 156.468   3.523  1.00  0.00    +0.039 A 
ATOM     38  C   UNL     1     -37.687 157.784   3.937  1.00  0.00    +0.123 A 
ATOM     39  F   UNL     1     -38.366 158.753   3.311  1.00  0.00    -0.207 F 
ENDBRANCH  28  33
ENDBRANCH   4  28
TORSDOF 5
ENDMDL
MODEL 10
REMARK VINA RESULT:    -8.214      5.511     10.030
REMARK INTER + INTRA:         -10.797
REMARK INTER:                 -10.230
REMARK INTRA:                  -0.567
REMARK UNBOUND:                -0.422
REMARK SMILES Cn1cc(-c2cc3c(N4CCN(c5ncc([C@@](C)(N)c6ccc(F)cc6)cn5)CC4)ncnn3c2)cn1
REMARK SMILES IDX 13 1 14 2 15 3 16 4 27 5 28 6 12 7 5 8 6 9 35 10 7 11 34 12
REMARK SMILES IDX 8 13 33 14 9 15 31 16 32 17 10 18 30 19 11 20 29 21 4 22
REMARK SMILES IDX 2 23 3 24 37 25 36 26 1 27 17 28 18 29 19 30 20 33 21 34
REMARK SMILES IDX 26 35 22 36 25 37 23 38 24 39
REMARK H PARENT 19 31 19 32
ROOT
ATOM      1  C   UNL     1     -37.881 151.236   4.913  1.00  0.00    +0.225 A 
ATOM      2  N   UNL     1     -36.702 150.825   5.406  1.00  0.00    -0.221 NA
ATOM      3  C   UNL     1     -35.798 151.768   5.753  1.00  0.00    +0.122 A 
ATOM      4  C   UNL     1     -35.994 153.124   5.614  1.00  0.00    +0.013 A 
ATOM      5  C   UNL     1     -37.242 153.441   5.116  1.00  0.00    +0.122 A 
ATOM      6  N   UNL     1     -38.178 152.534   4.762  1.00  0.00    -0.221 NA
ENDROOT
BRANCH   1   7
ATOM      7  N   UNL     1     -38.806 150.289   4.527  1.00  0.00    -0.337 N 
ATOM      8  C   UNL     1     -41.913 144.904   1.267  1.00  0.00    +0.005 A 
ATOM      9  C   UNL     1     -41.407 146.069   1.900  1.00  0.00    +0.042 A 
ATOM     10  C   UNL     1     -42.207 143.999   2.262  1.00  0.00    +0.122 A 
ATOM     11  C   UNL     1     -41.386 145.822   3.261  1.00  0.00    +0.108 A 
ATOM     12  N   UNL     1     -41.910 144.579   3.465  1.00  0.00    -0.235 N 
ATOM     13  C   UNL     1     -40.996 146.584   4.417  1.00  0.00    +0.156 C 
ATOM     14  N   UNL     1     -42.118 144.021   4.665  1.00  0.00    -0.156 NA
ATOM     15  N   UNL     1     -40.408 147.842   4.380  1.00  0.00    -0.351 N 
ATOM     16  N   UNL     1     -41.233 146.041   5.579  1.00  0.00    -0.215 NA
ATOM     17  C   UNL     1     -41.779 144.786   5.653  1.00  0.00    +0.247 C 
ATOM     18  C   UNL     1     -39.482 148.244   3.305  1.00  0.00    +0.139 C 
ATOM     19  C   UNL     1     -40.331 148.650   5.614  1.00  0.00    +0.139 C 
ATOM     20  C   UNL     1     -38.311 149.112   3.814  1.00  0.00    +0.141 C 
ATOM     21  C   UNL     1     -40.025 150.134   5.325  1.00  0.00    +0.141 C 
BRANCH   8  22
ATOM     22  C   UNL     1     -42.090 144.723  -0.166  1.00  0.00    +0.021 A 
ATOM     23  N   UNL     1     -41.838 144.674  -2.339  1.00  0.00    -0.275 N 
ATOM     24  C   UNL     1     -41.213 145.031  -1.180  1.00  0.00    +0.117 A 
ATOM     25  N   UNL     1     -43.067 144.155  -2.149  1.00  0.00    -0.181 NA
ATOM     26  C   UNL     1     -43.216 144.184  -0.821  1.00  0.00    +0.143 A 
ATOM     27  C   UNL     1     -41.320 144.801  -3.679  1.00  0.00    +0.173 C 
ENDBRANCH   8  22
ENDBRANCH   1   7
BRANCH   4  28
ATOM     28  C   UNL     1     -34.979 154.181   6.027  1.00  0.00    +0.067 C 
ATOM     29  C   UNL     1     -34.568 153.844   7.481  1.00  0.00    +0.038 C 
BRANCH  28  30
ATOM     30  N   UNL     1     -33.733 154.079   5.239  1.00  0.00    -0.318 NA
ATOM     31  H   UNL     1     -33.144 154.883   5.458  1.00  0.00    +0.120 HD
ATOM     32  H   UNL     1     -33.955 154.174   4.249  1.00  0.00    +0.120 HD
ENDBRANCH  28  30
BRANCH  28  33
ATOM     33  C   UNL     1     -35.518 155.617   5.845  1.00  0.00    -0.024 A 
ATOM     34  C   UNL     1     -35.956 156.348   6.975  1.00  0.00    +0.009 A 
ATOM     35  C   UNL     1     -35.620 156.241   4.586  1.00  0.00    +0.009 A 
ATOM     36  C   UNL     1     -36.460 157.644   6.851  1.00  0.00    +0.039 A 
ATOM     37  C   UNL     1     -36.127 157.539   4.465  1.00  0.00    +0.039 A 
ATOM     38  C   UNL     1     -36.541 158.228   5.595  1.00  0.00    +0.123 A 
ATOM     39  F   UNL     1     -37.025 159.470   5.474  1.00  0.00    -0.207 F 
ENDBRANCH  28  33
ENDBRANCH   4  28
TORSDOF 5
ENDMDL
