REMARK SMILES COc1cc2nccc(Oc3ccc(NC(=O)Nc4cc(C)on4)c(Cl)c3)c2cc1OC
REMARK SMILES IDX 11 1 12 2 13 3 14 4 25 5 26 6 27 7 10 8 9 9 3 10 4 11 30 12
REMARK SMILES IDX 5 13 29 14 6 15 28 16 7 17 8 18 2 19 1 20 31 21 32 22 15 23
REMARK SMILES IDX 16 24 17 25 18 26 19 29 20 30 24 31 21 32 23 33 22 34
REMARK H PARENT 15 27 18 28
ROOT
ATOM      1  C   UNL     1      -0.672   0.599  -1.444  1.00  0.00    +0.129 A 
ATOM      2  C   UNL     1      -0.099   0.315  -0.203  1.00  0.00    +0.049 A 
ATOM      3  C   UNL     1       1.292   0.218  -0.075  1.00  0.00    +0.031 A 
ATOM      4  C   UNL     1       2.123   0.393  -1.184  1.00  0.00    +0.061 A 
ATOM      5  C   UNL     1       1.526   0.648  -2.434  1.00  0.00    +0.068 A 
ATOM      6 Cl   UNL     1       2.495   0.849  -3.857  1.00  0.00    -0.082 Cl
ATOM      7  C   UNL     1       0.139   0.747  -2.566  1.00  0.00    +0.069 A 
ENDROOT
BRANCH   1   8
ATOM      8  O   UNL     1      -2.030   0.680  -1.654  1.00  0.00    -0.457 OA
BRANCH   8   9
ATOM      9  C   UNL     1      -2.786   1.299  -0.679  1.00  0.00    +0.138 A 
ATOM     10  C   UNL     1      -6.026  -0.697   1.132  1.00  0.00    +0.162 A 
ATOM     11  C   UNL     1      -5.694   0.624   1.455  1.00  0.00    +0.079 A 
ATOM     12  C   UNL     1      -5.265  -1.387   0.174  1.00  0.00    +0.161 A 
ATOM     13  C   UNL     1      -4.630   1.282   0.855  1.00  0.00    +0.078 A 
ATOM     14  C   UNL     1      -4.191  -0.737  -0.437  1.00  0.00    +0.064 A 
ATOM     15  N   UNL     1      -4.372   2.553   1.214  1.00  0.00    -0.256 NA
ATOM     16  C   UNL     1      -3.863   0.596  -0.104  1.00  0.00    +0.047 A 
ATOM     17  C   UNL     1      -3.344   3.195   0.620  1.00  0.00    +0.115 A 
ATOM     18  C   UNL     1      -2.530   2.622  -0.331  1.00  0.00    +0.068 A 
BRANCH  10  19
ATOM     19  O   UNL     1      -7.067  -1.395   1.694  1.00  0.00    -0.493 OA
ATOM     20  C   UNL     1      -7.848  -0.735   2.679  1.00  0.00    +0.278 C 
ENDBRANCH  10  19
BRANCH  12  21
ATOM     21  O   UNL     1      -5.648  -2.677  -0.091  1.00  0.00    -0.493 OA
ATOM     22  C   UNL     1      -4.887  -3.413  -1.038  1.00  0.00    +0.278 C 
ENDBRANCH  12  21
ENDBRANCH   8   9
ENDBRANCH   1   8
BRANCH   4  23
ATOM     23  N   UNL     1       3.535   0.301  -1.121  1.00  0.00    -0.306 N 
ATOM     24  C   UNL     1       4.335   0.224   0.012  1.00  0.00    +0.324 C 
ATOM     25  O   UNL     1       3.916   0.302   1.158  1.00  0.00    -0.248 OA
ATOM     26  N   UNL     1       5.658   0.044  -0.350  1.00  0.00    -0.289 N 
ATOM     27  H   UNL     1       4.005   0.462  -2.001  1.00  0.00    +0.171 HD
ATOM     28  H   UNL     1       5.868  -0.190  -1.305  1.00  0.00    +0.173 HD
BRANCH  26  29
ATOM     29  C   UNL     1       6.719   0.002   0.536  1.00  0.00    +0.177 A 
ATOM     30  C   UNL     1       8.049  -0.294   0.145  1.00  0.00    +0.095 A 
ATOM     31  N   UNL     1       6.663   0.243   1.849  1.00  0.00    -0.062 NA
ATOM     32  C   UNL     1       8.779  -0.224   1.305  1.00  0.00    +0.135 A 
ATOM     33  O   UNL     1       7.949   0.098   2.329  1.00  0.00    -0.360 OA
ATOM     34  C   UNL     1      10.198  -0.414   1.647  1.00  0.00    +0.091 C 
ENDBRANCH  26  29
ENDBRANCH   4  23
TORSDOF 6
