MODEL 1
REMARK VINA RESULT:   -10.526      0.000      0.000
REMARK INTER + INTRA:         -14.388
REMARK INTER:                 -14.218
REMARK INTRA:                  -0.170
REMARK UNBOUND:                -0.170
REMARK SMILES COc1cc2nccc(Oc3ccc(NC(=O)Nc4cc(C)on4)c(Cl)c3)c2cc1OC
REMARK SMILES IDX 11 1 12 2 13 3 14 4 25 5 26 6 27 7 10 8 9 9 3 10 4 11 30 12
REMARK SMILES IDX 5 13 29 14 6 15 28 16 7 17 8 18 2 19 1 20 31 21 32 22 15 23
REMARK SMILES IDX 16 24 17 25 18 26 19 29 20 30 24 31 21 32 23 33 22 34
REMARK H PARENT 15 27 18 28
ROOT
ATOM      1  C   UNL     1     -39.303 159.930  -2.073  1.00  0.00    +0.129 A 
ATOM      2  C   UNL     1     -38.228 159.094  -1.765  1.00  0.00    +0.049 A 
ATOM      3  C   UNL     1     -38.189 158.420  -0.538  1.00  0.00    +0.031 A 
ATOM      4  C   UNL     1     -39.214 158.581   0.396  1.00  0.00    +0.061 A 
ATOM      5  C   UNL     1     -40.276 159.452   0.082  1.00  0.00    +0.068 A 
ATOM      6 Cl   UNL     1     -41.568 159.719   1.205  1.00  0.00    -0.082 Cl
ATOM      7  C   UNL     1     -40.320 160.125  -1.141  1.00  0.00    +0.069 A 
ENDROOT
BRANCH   1   8
ATOM      8  O   UNL     1     -39.398 160.648  -3.243  1.00  0.00    -0.457 OA
BRANCH   8   9
ATOM      9  C   UNL     1     -39.087 161.992  -3.188  1.00  0.00    +0.138 A 
ATOM     10  C   UNL     1     -37.866 164.068  -6.647  1.00  0.00    +0.162 A 
ATOM     11  C   UNL     1     -37.935 164.689  -5.395  1.00  0.00    +0.079 A 
ATOM     12  C   UNL     1     -38.209 162.711  -6.766  1.00  0.00    +0.161 A 
ATOM     13  C   UNL     1     -38.333 164.004  -4.255  1.00  0.00    +0.078 A 
ATOM     14  C   UNL     1     -38.612 162.009  -5.628  1.00  0.00    +0.064 A 
ATOM     15  N   UNL     1     -38.372 164.666  -3.085  1.00  0.00    -0.256 NA
ATOM     16  C   UNL     1     -38.679 162.645  -4.368  1.00  0.00    +0.047 A 
ATOM     17  C   UNL     1     -38.748 163.994  -1.976  1.00  0.00    +0.115 A 
ATOM     18  C   UNL     1     -39.105 162.665  -1.970  1.00  0.00    +0.068 A 
BRANCH  10  19
ATOM     19  O   UNL     1     -37.480 164.697  -7.805  1.00  0.00    -0.493 OA
ATOM     20  C   UNL     1     -38.256 165.801  -8.247  1.00  0.00    +0.278 C 
ENDBRANCH  10  19
BRANCH  12  21
ATOM     21  O   UNL     1     -38.118 162.170  -8.023  1.00  0.00    -0.493 OA
ATOM     22  C   UNL     1     -37.062 161.255  -8.276  1.00  0.00    +0.278 C 
ENDBRANCH  12  21
ENDBRANCH   8   9
ENDBRANCH   1   8
BRANCH   4  23
ATOM     23  N   UNL     1     -39.229 157.932   1.655  1.00  0.00    -0.306 N 
ATOM     24  C   UNL     1     -38.163 157.730   2.523  1.00  0.00    +0.324 C 
ATOM     25  O   UNL     1     -37.005 158.033   2.274  1.00  0.00    -0.248 OA
ATOM     26  N   UNL     1     -38.608 157.146   3.696  1.00  0.00    -0.289 N 
ATOM     27  H   UNL     1     -40.085 157.436   1.861  1.00  0.00    +0.171 HD
ATOM     28  H   UNL     1     -39.597 157.109   3.870  1.00  0.00    +0.173 HD
BRANCH  26  29
ATOM     29  C   UNL     1     -37.790 156.747   4.737  1.00  0.00    +0.177 A 
ATOM     30  C   UNL     1     -37.579 155.389   5.084  1.00  0.00    +0.095 A 
ATOM     31  N   UNL     1     -37.080 157.547   5.537  1.00  0.00    -0.062 NA
ATOM     32  C   UNL     1     -36.710 155.430   6.145  1.00  0.00    +0.135 A 
ATOM     33  O   UNL     1     -36.409 156.724   6.419  1.00  0.00    -0.360 OA
ATOM     34  C   UNL     1     -36.071 154.414   6.999  1.00  0.00    +0.091 C 
ENDBRANCH  26  29
ENDBRANCH   4  23
TORSDOF 6
ENDMDL
MODEL 2
REMARK VINA RESULT:    -9.787      2.338     11.458
REMARK INTER + INTRA:         -13.390
REMARK INTER:                 -12.788
REMARK INTRA:                  -0.602
REMARK UNBOUND:                -0.170
REMARK SMILES COc1cc2nccc(Oc3ccc(NC(=O)Nc4cc(C)on4)c(Cl)c3)c2cc1OC
REMARK SMILES IDX 11 1 12 2 13 3 14 4 25 5 26 6 27 7 10 8 9 9 3 10 4 11 30 12
REMARK SMILES IDX 5 13 29 14 6 15 28 16 7 17 8 18 2 19 1 20 31 21 32 22 15 23
REMARK SMILES IDX 16 24 17 25 18 26 19 29 20 30 24 31 21 32 23 33 22 34
REMARK H PARENT 15 27 18 28
ROOT
ATOM      1  C   UNL     1     -38.902 157.847   2.752  1.00  0.00    +0.129 A 
ATOM      2  C   UNL     1     -37.871 157.952   1.815  1.00  0.00    +0.049 A 
ATOM      3  C   UNL     1     -38.057 158.698   0.645  1.00  0.00    +0.031 A 
ATOM      4  C   UNL     1     -39.273 159.337   0.393  1.00  0.00    +0.061 A 
ATOM      5  C   UNL     1     -40.312 159.194   1.334  1.00  0.00    +0.068 A 
ATOM      6 Cl   UNL     1     -41.856 159.937   1.072  1.00  0.00    -0.082 Cl
ATOM      7  C   UNL     1     -40.131 158.452   2.503  1.00  0.00    +0.069 A 
ENDROOT
BRANCH   1   8
ATOM      8  O   UNL     1     -38.805 157.108   3.909  1.00  0.00    -0.457 OA
BRANCH   8   9
ATOM      9  C   UNL     1     -37.617 157.180   4.609  1.00  0.00    +0.138 A 
ATOM     10  C   UNL     1     -35.747 153.689   6.051  1.00  0.00    +0.162 A 
ATOM     11  C   UNL     1     -35.223 154.965   6.291  1.00  0.00    +0.079 A 
ATOM     12  C   UNL     1     -36.934 153.557   5.311  1.00  0.00    +0.161 A 
ATOM     13  C   UNL     1     -35.842 156.114   5.820  1.00  0.00    +0.078 A 
ATOM     14  C   UNL     1     -37.566 154.705   4.830  1.00  0.00    +0.064 A 
ATOM     15  N   UNL     1     -35.281 157.306   6.092  1.00  0.00    -0.256 NA
ATOM     16  C   UNL     1     -37.029 155.988   5.077  1.00  0.00    +0.047 A 
ATOM     17  C   UNL     1     -35.891 158.423   5.643  1.00  0.00    +0.115 A 
ATOM     18  C   UNL     1     -37.056 158.418   4.909  1.00  0.00    +0.068 A 
BRANCH  10  19
ATOM     19  O   UNL     1     -35.177 152.520   6.493  1.00  0.00    -0.493 OA
ATOM     20  C   UNL     1     -33.812 152.292   6.178  1.00  0.00    +0.278 C 
ENDBRANCH  10  19
BRANCH  12  21
ATOM     21  O   UNL     1     -37.387 152.277   5.115  1.00  0.00    -0.493 OA
ATOM     22  C   UNL     1     -38.497 151.842   5.887  1.00  0.00    +0.278 C 
ENDBRANCH  12  21
ENDBRANCH   8   9
ENDBRANCH   1   8
BRANCH   4  23
ATOM     23  N   UNL     1     -39.525 160.099  -0.774  1.00  0.00    -0.306 N 
ATOM     24  C   UNL     1     -38.961 161.316  -1.136  1.00  0.00    +0.324 C 
ATOM     25  O   UNL     1     -38.193 161.956  -0.433  1.00  0.00    -0.248 OA
ATOM     26  N   UNL     1     -39.392 161.684  -2.398  1.00  0.00    -0.289 N 
ATOM     27  H   UNL     1     -40.315 159.783  -1.319  1.00  0.00    +0.171 HD
ATOM     28  H   UNL     1     -39.873 161.003  -2.960  1.00  0.00    +0.173 HD
BRANCH  26  29
ATOM     29  C   UNL     1     -39.075 162.877  -3.022  1.00  0.00    +0.177 A 
ATOM     30  C   UNL     1     -38.850 162.990  -4.417  1.00  0.00    +0.095 A 
ATOM     31  N   UNL     1     -38.954 164.070  -2.433  1.00  0.00    -0.062 NA
ATOM     32  C   UNL     1     -38.578 164.320  -4.621  1.00  0.00    +0.135 A 
ATOM     33  O   UNL     1     -38.639 164.970  -3.432  1.00  0.00    -0.360 OA
ATOM     34  C   UNL     1     -38.253 165.140  -5.800  1.00  0.00    +0.091 C 
ENDBRANCH  26  29
ENDBRANCH   4  23
TORSDOF 6
ENDMDL
MODEL 3
REMARK VINA RESULT:    -9.639      3.639      6.621
REMARK INTER + INTRA:         -13.190
REMARK INTER:                 -12.608
REMARK INTRA:                  -0.581
REMARK UNBOUND:                -0.170
REMARK SMILES COc1cc2nccc(Oc3ccc(NC(=O)Nc4cc(C)on4)c(Cl)c3)c2cc1OC
REMARK SMILES IDX 11 1 12 2 13 3 14 4 25 5 26 6 27 7 10 8 9 9 3 10 4 11 30 12
REMARK SMILES IDX 5 13 29 14 6 15 28 16 7 17 8 18 2 19 1 20 31 21 32 22 15 23
REMARK SMILES IDX 16 24 17 25 18 26 19 29 20 30 24 31 21 32 23 33 22 34
REMARK H PARENT 15 27 18 28
ROOT
ATOM      1  C   UNL     1     -37.268 162.542  -6.657  1.00  0.00    +0.129 A 
ATOM      2  C   UNL     1     -37.797 161.287  -6.351  1.00  0.00    +0.049 A 
ATOM      3  C   UNL     1     -38.541 161.104  -5.179  1.00  0.00    +0.031 A 
ATOM      4  C   UNL     1     -38.756 162.166  -4.298  1.00  0.00    +0.061 A 
ATOM      5  C   UNL     1     -38.188 163.417  -4.607  1.00  0.00    +0.068 A 
ATOM      6 Cl   UNL     1     -38.391 164.772  -3.546  1.00  0.00    -0.082 Cl
ATOM      7  C   UNL     1     -37.447 163.605  -5.776  1.00  0.00    +0.069 A 
ENDROOT
BRANCH   1   8
ATOM      8  O   UNL     1     -36.502 162.793  -7.773  1.00  0.00    -0.457 OA
BRANCH   8   9
ATOM      9  C   UNL     1     -37.149 162.819  -8.993  1.00  0.00    +0.138 A 
ATOM     10  C   UNL     1     -37.353 159.366 -11.401  1.00  0.00    +0.162 A 
ATOM     11  C   UNL     1     -37.893 160.590 -11.812  1.00  0.00    +0.079 A 
ATOM     12  C   UNL     1     -36.718 159.275 -10.152  1.00  0.00    +0.161 A 
ATOM     13  C   UNL     1     -37.822 161.728 -11.020  1.00  0.00    +0.078 A 
ATOM     14  C   UNL     1     -36.639 160.411  -9.345  1.00  0.00    +0.064 A 
ATOM     15  N   UNL     1     -38.362 162.871 -11.482  1.00  0.00    -0.256 NA
ATOM     16  C   UNL     1     -37.189 161.642  -9.767  1.00  0.00    +0.047 A 
ATOM     17  C   UNL     1     -38.280 163.979 -10.716  1.00  0.00    +0.115 A 
ATOM     18  C   UNL     1     -37.683 164.010  -9.476  1.00  0.00    +0.068 A 
BRANCH  10  19
ATOM     19  O   UNL     1     -37.395 158.211 -12.143  1.00  0.00    -0.493 OA
ATOM     20  C   UNL     1     -38.581 157.433 -12.084  1.00  0.00    +0.278 C 
ENDBRANCH  10  19
BRANCH  12  21
ATOM     21  O   UNL     1     -36.213 158.045  -9.816  1.00  0.00    -0.493 OA
ATOM     22  C   UNL     1     -35.202 157.993  -8.819  1.00  0.00    +0.278 C 
ENDBRANCH  12  21
ENDBRANCH   8   9
ENDBRANCH   1   8
BRANCH   4  23
ATOM     23  N   UNL     1     -39.493 162.043  -3.095  1.00  0.00    -0.306 N 
ATOM     24  C   UNL     1     -39.310 161.120  -2.073  1.00  0.00    +0.324 C 
ATOM     25  O   UNL     1     -38.501 160.204  -2.108  1.00  0.00    -0.248 OA
ATOM     26  N   UNL     1     -40.168 161.394  -1.023  1.00  0.00    -0.289 N 
ATOM     27  H   UNL     1     -40.336 162.599  -3.061  1.00  0.00    +0.171 HD
ATOM     28  H   UNL     1     -40.658 162.272  -1.019  1.00  0.00    +0.173 HD
BRANCH  26  29
ATOM     29  C   UNL     1     -40.291 160.622   0.117  1.00  0.00    +0.177 A 
ATOM     30  C   UNL     1     -41.463 159.894   0.443  1.00  0.00    +0.095 A 
ATOM     31  N   UNL     1     -39.352 160.431   1.049  1.00  0.00    -0.062 NA
ATOM     32  C   UNL     1     -41.169 159.268   1.628  1.00  0.00    +0.135 A 
ATOM     33  O   UNL     1     -39.903 159.589   1.993  1.00  0.00    -0.360 OA
ATOM     34  C   UNL     1     -41.904 158.368   2.532  1.00  0.00    +0.091 C 
ENDBRANCH  26  29
ENDBRANCH   4  23
TORSDOF 6
ENDMDL
MODEL 4
REMARK VINA RESULT:    -9.525      4.340      7.907
REMARK INTER + INTRA:         -13.037
REMARK INTER:                 -12.325
REMARK INTRA:                  -0.712
REMARK UNBOUND:                -0.170
REMARK SMILES COc1cc2nccc(Oc3ccc(NC(=O)Nc4cc(C)on4)c(Cl)c3)c2cc1OC
REMARK SMILES IDX 11 1 12 2 13 3 14 4 25 5 26 6 27 7 10 8 9 9 3 10 4 11 30 12
REMARK SMILES IDX 5 13 29 14 6 15 28 16 7 17 8 18 2 19 1 20 31 21 32 22 15 23
REMARK SMILES IDX 16 24 17 25 18 26 19 29 20 30 24 31 21 32 23 33 22 34
REMARK H PARENT 15 27 18 28
ROOT
ATOM      1  C   UNL     1     -38.050 163.586  -8.481  1.00  0.00    +0.129 A 
ATOM      2  C   UNL     1     -38.218 162.202  -8.405  1.00  0.00    +0.049 A 
ATOM      3  C   UNL     1     -38.188 161.556  -7.164  1.00  0.00    +0.031 A 
ATOM      4  C   UNL     1     -37.979 162.281  -5.988  1.00  0.00    +0.061 A 
ATOM      5  C   UNL     1     -37.780 163.672  -6.086  1.00  0.00    +0.068 A 
ATOM      6 Cl   UNL     1     -37.490 164.630  -4.672  1.00  0.00    -0.082 Cl
ATOM      7  C   UNL     1     -37.811 164.321  -7.323  1.00  0.00    +0.069 A 
ENDROOT
BRANCH   1   8
ATOM      8  O   UNL     1     -38.038 164.287  -9.666  1.00  0.00    -0.457 OA
BRANCH   8   9
ATOM      9  C   UNL     1     -36.811 164.502 -10.262  1.00  0.00    +0.138 A 
ATOM     10  C   UNL     1     -35.608 168.382 -11.386  1.00  0.00    +0.162 A 
ATOM     11  C   UNL     1     -34.812 167.257 -11.634  1.00  0.00    +0.079 A 
ATOM     12  C   UNL     1     -36.849 168.224 -10.746  1.00  0.00    +0.161 A 
ATOM     13  C   UNL     1     -35.211 165.979 -11.267  1.00  0.00    +0.078 A 
ATOM     14  C   UNL     1     -37.262 166.944 -10.372  1.00  0.00    +0.064 A 
ATOM     15  N   UNL     1     -34.395 164.945 -11.541  1.00  0.00    -0.256 NA
ATOM     16  C   UNL     1     -36.452 165.815 -10.625  1.00  0.00    +0.047 A 
ATOM     17  C   UNL     1     -34.791 163.702 -11.194  1.00  0.00    +0.115 A 
ATOM     18  C   UNL     1     -35.983 163.425 -10.565  1.00  0.00    +0.068 A 
BRANCH  10  19
ATOM     19  O   UNL     1     -35.262 169.667 -11.726  1.00  0.00    -0.493 OA
ATOM     20  C   UNL     1     -33.966 170.119 -11.366  1.00  0.00    +0.278 C 
ENDBRANCH  10  19
BRANCH  12  21
ATOM     21  O   UNL     1     -37.573 169.369 -10.536  1.00  0.00    -0.493 OA
ATOM     22  C   UNL     1     -38.429 169.813 -11.579  1.00  0.00    +0.278 C 
ENDBRANCH  12  21
ENDBRANCH   8   9
ENDBRANCH   1   8
BRANCH   4  23
ATOM     23  N   UNL     1     -37.931 161.685  -4.704  1.00  0.00    -0.306 N 
ATOM     24  C   UNL     1     -38.875 161.769  -3.689  1.00  0.00    +0.324 C 
ATOM     25  O   UNL     1     -39.884 162.458  -3.742  1.00  0.00    -0.248 OA
ATOM     26  N   UNL     1     -38.507 160.964  -2.627  1.00  0.00    -0.289 N 
ATOM     27  H   UNL     1     -37.036 161.282  -4.462  1.00  0.00    +0.171 HD
ATOM     28  H   UNL     1     -37.760 160.303  -2.760  1.00  0.00    +0.173 HD
BRANCH  26  29
ATOM     29  C   UNL     1     -39.191 160.877  -1.428  1.00  0.00    +0.177 A 
ATOM     30  C   UNL     1     -40.146 159.867  -1.148  1.00  0.00    +0.095 A 
ATOM     31  N   UNL     1     -39.052 161.690  -0.377  1.00  0.00    -0.062 NA
ATOM     32  C   UNL     1     -40.574 160.134   0.128  1.00  0.00    +0.135 A 
ATOM     33  O   UNL     1     -39.918 161.227   0.593  1.00  0.00    -0.360 OA
ATOM     34  C   UNL     1     -41.541 159.511   1.046  1.00  0.00    +0.091 C 
ENDBRANCH  26  29
ENDBRANCH   4  23
TORSDOF 6
ENDMDL
MODEL 5
REMARK VINA RESULT:    -9.483      1.274      1.408
REMARK INTER + INTRA:         -12.979
REMARK INTER:                 -12.993
REMARK INTRA:                   0.014
REMARK UNBOUND:                -0.170
REMARK SMILES COc1cc2nccc(Oc3ccc(NC(=O)Nc4cc(C)on4)c(Cl)c3)c2cc1OC
REMARK SMILES IDX 11 1 12 2 13 3 14 4 25 5 26 6 27 7 10 8 9 9 3 10 4 11 30 12
REMARK SMILES IDX 5 13 29 14 6 15 28 16 7 17 8 18 2 19 1 20 31 21 32 22 15 23
REMARK SMILES IDX 16 24 17 25 18 26 19 29 20 30 24 31 21 32 23 33 22 34
REMARK H PARENT 15 27 18 28
ROOT
ATOM      1  C   UNL     1     -38.985 160.593  -2.827  1.00  0.00    +0.129 A 
ATOM      2  C   UNL     1     -37.875 159.950  -2.277  1.00  0.00    +0.049 A 
ATOM      3  C   UNL     1     -37.907 159.500  -0.951  1.00  0.00    +0.031 A 
ATOM      4  C   UNL     1     -39.041 159.694  -0.161  1.00  0.00    +0.061 A 
ATOM      5  C   UNL     1     -40.141 160.372  -0.723  1.00  0.00    +0.068 A 
ATOM      6 Cl   UNL     1     -41.571 160.672   0.209  1.00  0.00    -0.082 Cl
ATOM      7  C   UNL     1     -40.114 160.822  -2.045  1.00  0.00    +0.069 A 
ENDROOT
BRANCH   1   8
ATOM      8  O   UNL     1     -39.018 161.089  -4.111  1.00  0.00    -0.457 OA
BRANCH   8   9
ATOM      9  C   UNL     1     -38.895 162.455  -4.265  1.00  0.00    +0.138 A 
ATOM     10  C   UNL     1     -37.827 164.121  -7.986  1.00  0.00    +0.162 A 
ATOM     11  C   UNL     1     -38.030 164.912  -6.850  1.00  0.00    +0.079 A 
ATOM     12  C   UNL     1     -37.977 162.727  -7.894  1.00  0.00    +0.161 A 
ATOM     13  C   UNL     1     -38.377 164.363  -5.624  1.00  0.00    +0.078 A 
ATOM     14  C   UNL     1     -38.327 162.161  -6.667  1.00  0.00    +0.064 A 
ATOM     15  N   UNL     1     -38.554 165.187  -4.574  1.00  0.00    -0.256 NA
ATOM     16  C   UNL     1     -38.531 162.968  -5.526  1.00  0.00    +0.047 A 
ATOM     17  C   UNL     1     -38.880 164.649  -3.380  1.00  0.00    +0.115 A 
ATOM     18  C   UNL     1     -39.054 163.299  -3.170  1.00  0.00    +0.068 A 
BRANCH  10  19
ATOM     19  O   UNL     1     -37.483 164.611  -9.222  1.00  0.00    -0.493 OA
ATOM     20  C   UNL     1     -38.190 165.745  -9.702  1.00  0.00    +0.278 C 
ENDBRANCH  10  19
BRANCH  12  21
ATOM     21  O   UNL     1     -37.763 162.016  -9.047  1.00  0.00    -0.493 OA
ATOM     22  C   UNL     1     -37.029 160.804  -8.951  1.00  0.00    +0.278 C 
ENDBRANCH  12  21
ENDBRANCH   8   9
ENDBRANCH   1   8
BRANCH   4  23
ATOM     23  N   UNL     1     -39.133 159.269   1.187  1.00  0.00    -0.306 N 
ATOM     24  C   UNL     1     -38.282 158.410   1.870  1.00  0.00    +0.324 C 
ATOM     25  O   UNL     1     -37.339 157.823   1.359  1.00  0.00    -0.248 OA
ATOM     26  N   UNL     1     -38.656 158.325   3.199  1.00  0.00    -0.289 N 
ATOM     27  H   UNL     1     -40.004 159.506   1.643  1.00  0.00    +0.171 HD
ATOM     28  H   UNL     1     -39.326 158.985   3.554  1.00  0.00    +0.173 HD
BRANCH  26  29
ATOM     29  C   UNL     1     -38.060 157.499   4.135  1.00  0.00    +0.177 A 
ATOM     30  C   UNL     1     -37.105 157.952   5.079  1.00  0.00    +0.095 A 
ATOM     31  N   UNL     1     -38.297 156.194   4.302  1.00  0.00    -0.062 NA
ATOM     32  C   UNL     1     -36.780 156.838   5.811  1.00  0.00    +0.135 A 
ATOM     33  O   UNL     1     -37.494 155.782   5.347  1.00  0.00    -0.360 OA
ATOM     34  C   UNL     1     -35.869 156.569   6.935  1.00  0.00    +0.091 C 
ENDBRANCH  26  29
ENDBRANCH   4  23
TORSDOF 6
ENDMDL
MODEL 6
REMARK VINA RESULT:    -8.683      4.122     12.938
REMARK INTER + INTRA:         -11.898
REMARK INTER:                 -11.161
REMARK INTRA:                  -0.737
REMARK UNBOUND:                -0.170
REMARK SMILES COc1cc2nccc(Oc3ccc(NC(=O)Nc4cc(C)on4)c(Cl)c3)c2cc1OC
REMARK SMILES IDX 11 1 12 2 13 3 14 4 25 5 26 6 27 7 10 8 9 9 3 10 4 11 30 12
REMARK SMILES IDX 5 13 29 14 6 15 28 16 7 17 8 18 2 19 1 20 31 21 32 22 15 23
REMARK SMILES IDX 16 24 17 25 18 26 19 29 20 30 24 31 21 32 23 33 22 34
REMARK H PARENT 15 27 18 28
ROOT
ATOM      1  C   UNL     1     -37.251 154.920   5.849  1.00  0.00    +0.129 A 
ATOM      2  C   UNL     1     -37.668 154.693   4.536  1.00  0.00    +0.049 A 
ATOM      3  C   UNL     1     -37.762 155.758   3.632  1.00  0.00    +0.031 A 
ATOM      4  C   UNL     1     -37.451 157.060   4.031  1.00  0.00    +0.061 A 
ATOM      5  C   UNL     1     -37.062 157.275   5.368  1.00  0.00    +0.068 A 
ATOM      6 Cl   UNL     1     -36.687 158.868   5.939  1.00  0.00    -0.082 Cl
ATOM      7  C   UNL     1     -36.965 156.215   6.272  1.00  0.00    +0.069 A 
ENDROOT
BRANCH   1   8
ATOM      8  O   UNL     1     -37.163 153.930   6.801  1.00  0.00    -0.457 OA
BRANCH   8   9
ATOM      9  C   UNL     1     -36.258 152.912   6.575  1.00  0.00    +0.138 A 
ATOM     10  C   UNL     1     -37.565 149.092   5.366  1.00  0.00    +0.162 A 
ATOM     11  C   UNL     1     -36.213 149.376   5.596  1.00  0.00    +0.079 A 
ATOM     12  C   UNL     1     -38.524 150.103   5.543  1.00  0.00    +0.161 A 
ATOM     13  C   UNL     1     -35.785 150.632   5.999  1.00  0.00    +0.078 A 
ATOM     14  C   UNL     1     -38.106 151.372   5.947  1.00  0.00    +0.064 A 
ATOM     15  N   UNL     1     -34.469 150.830   6.203  1.00  0.00    -0.256 NA
ATOM     16  C   UNL     1     -36.740 151.649   6.177  1.00  0.00    +0.047 A 
ATOM     17  C   UNL     1     -34.056 152.050   6.607  1.00  0.00    +0.115 A 
ATOM     18  C   UNL     1     -34.902 153.116   6.814  1.00  0.00    +0.068 A 
BRANCH  10  19
ATOM     19  O   UNL     1     -38.044 147.868   4.967  1.00  0.00    -0.493 OA
ATOM     20  C   UNL     1     -37.691 147.412   3.670  1.00  0.00    +0.278 C 
ENDBRANCH  10  19
BRANCH  12  21
ATOM     21  O   UNL     1     -39.827 149.753   5.299  1.00  0.00    -0.493 OA
ATOM     22  C   UNL     1     -40.663 149.488   6.417  1.00  0.00    +0.278 C 
ENDBRANCH  12  21
ENDBRANCH   8   9
ENDBRANCH   1   8
BRANCH   4  23
ATOM     23  N   UNL     1     -37.532 158.180   3.168  1.00  0.00    -0.306 N 
ATOM     24  C   UNL     1     -38.419 158.384   2.118  1.00  0.00    +0.324 C 
ATOM     25  O   UNL     1     -39.236 157.559   1.735  1.00  0.00    -0.248 OA
ATOM     26  N   UNL     1     -38.241 159.648   1.583  1.00  0.00    -0.289 N 
ATOM     27  H   UNL     1     -36.756 158.823   3.241  1.00  0.00    +0.171 HD
ATOM     28  H   UNL     1     -37.674 160.308   2.087  1.00  0.00    +0.173 HD
BRANCH  26  29
ATOM     29  C   UNL     1     -38.914 160.139   0.479  1.00  0.00    +0.177 A 
ATOM     30  C   UNL     1     -38.323 160.258  -0.804  1.00  0.00    +0.095 A 
ATOM     31  N   UNL     1     -40.186 160.546   0.445  1.00  0.00    -0.062 NA
ATOM     32  C   UNL     1     -39.316 160.769  -1.601  1.00  0.00    +0.135 A 
ATOM     33  O   UNL     1     -40.435 160.943  -0.853  1.00  0.00    -0.360 OA
ATOM     34  C   UNL     1     -39.413 161.144  -3.021  1.00  0.00    +0.091 C 
ENDBRANCH  26  29
ENDBRANCH   4  23
TORSDOF 6
ENDMDL
MODEL 7
REMARK VINA RESULT:    -8.378      5.513     14.932
REMARK INTER + INTRA:         -11.487
REMARK INTER:                 -10.414
REMARK INTRA:                  -1.072
REMARK UNBOUND:                -0.170
REMARK SMILES COc1cc2nccc(Oc3ccc(NC(=O)Nc4cc(C)on4)c(Cl)c3)c2cc1OC
REMARK SMILES IDX 11 1 12 2 13 3 14 4 25 5 26 6 27 7 10 8 9 9 3 10 4 11 30 12
REMARK SMILES IDX 5 13 29 14 6 15 28 16 7 17 8 18 2 19 1 20 31 21 32 22 15 23
REMARK SMILES IDX 16 24 17 25 18 26 19 29 20 30 24 31 21 32 23 33 22 34
REMARK H PARENT 15 27 18 28
ROOT
ATOM      1  C   UNL     1     -35.418 153.706   6.746  1.00  0.00    +0.129 A 
ATOM      2  C   UNL     1     -36.792 153.899   6.903  1.00  0.00    +0.049 A 
ATOM      3  C   UNL     1     -37.424 154.988   6.290  1.00  0.00    +0.031 A 
ATOM      4  C   UNL     1     -36.692 155.898   5.525  1.00  0.00    +0.061 A 
ATOM      5  C   UNL     1     -35.302 155.705   5.404  1.00  0.00    +0.068 A 
ATOM      6 Cl   UNL     1     -34.327 156.811   4.492  1.00  0.00    -0.082 Cl
ATOM      7  C   UNL     1     -34.667 154.620   6.012  1.00  0.00    +0.069 A 
ENDROOT
BRANCH   1   8
ATOM      8  O   UNL     1     -34.722 152.678   7.342  1.00  0.00    -0.457 OA
BRANCH   8   9
ATOM      9  C   UNL     1     -35.063 151.390   6.982  1.00  0.00    +0.138 A 
ATOM     10  C   UNL     1     -35.702 148.427   9.910  1.00  0.00    +0.162 A 
ATOM     11  C   UNL     1     -35.783 148.147   8.541  1.00  0.00    +0.079 A 
ATOM     12  C   UNL     1     -35.397 149.732  10.332  1.00  0.00    +0.161 A 
ATOM     13  C   UNL     1     -35.568 149.122   7.577  1.00  0.00    +0.078 A 
ATOM     14  C   UNL     1     -35.179 150.722   9.373  1.00  0.00    +0.064 A 
ATOM     15  N   UNL     1     -35.660 148.778   6.280  1.00  0.00    -0.256 NA
ATOM     16  C   UNL     1     -35.263 150.430   7.994  1.00  0.00    +0.047 A 
ATOM     17  C   UNL     1     -35.438 149.725   5.344  1.00  0.00    +0.115 A 
ATOM     18  C   UNL     1     -35.131 151.035   5.638  1.00  0.00    +0.068 A 
BRANCH  10  19
ATOM     19  O   UNL     1     -35.905 147.502  10.905  1.00  0.00    -0.493 OA
ATOM     20  C   UNL     1     -35.116 146.322  10.879  1.00  0.00    +0.278 C 
ENDBRANCH  10  19
BRANCH  12  21
ATOM     21  O   UNL     1     -35.335 149.932  11.688  1.00  0.00    -0.493 OA
ATOM     22  C   UNL     1     -35.524 151.254  12.171  1.00  0.00    +0.278 C 
ENDBRANCH  12  21
ENDBRANCH   8   9
ENDBRANCH   1   8
BRANCH   4  23
ATOM     23  N   UNL     1     -37.271 157.022   4.886  1.00  0.00    -0.306 N 
ATOM     24  C   UNL     1     -37.838 157.084   3.619  1.00  0.00    +0.324 C 
ATOM     25  O   UNL     1     -37.848 156.157   2.822  1.00  0.00    -0.248 OA
ATOM     26  N   UNL     1     -38.385 158.336   3.403  1.00  0.00    -0.289 N 
ATOM     27  H   UNL     1     -37.111 157.901   5.358  1.00  0.00    +0.171 HD
ATOM     28  H   UNL     1     -38.484 158.960   4.185  1.00  0.00    +0.173 HD
BRANCH  26  29
ATOM     29  C   UNL     1     -38.960 158.751   2.215  1.00  0.00    +0.177 A 
ATOM     30  C   UNL     1     -40.334 159.072   2.086  1.00  0.00    +0.095 A 
ATOM     31  N   UNL     1     -38.330 158.926   1.050  1.00  0.00    -0.062 NA
ATOM     32  C   UNL     1     -40.487 159.439   0.773  1.00  0.00    +0.135 A 
ATOM     33  O   UNL     1     -39.285 159.352   0.149  1.00  0.00    -0.360 OA
ATOM     34  C   UNL     1     -41.622 159.885  -0.052  1.00  0.00    +0.091 C 
ENDBRANCH  26  29
ENDBRANCH   4  23
TORSDOF 6
ENDMDL
MODEL 8
REMARK VINA RESULT:    -8.207      9.020     13.080
REMARK INTER + INTRA:         -11.256
REMARK INTER:                 -10.066
REMARK INTRA:                  -1.190
REMARK UNBOUND:                -0.170
REMARK SMILES COc1cc2nccc(Oc3ccc(NC(=O)Nc4cc(C)on4)c(Cl)c3)c2cc1OC
REMARK SMILES IDX 11 1 12 2 13 3 14 4 25 5 26 6 27 7 10 8 9 9 3 10 4 11 30 12
REMARK SMILES IDX 5 13 29 14 6 15 28 16 7 17 8 18 2 19 1 20 31 21 32 22 15 23
REMARK SMILES IDX 16 24 17 25 18 26 19 29 20 30 24 31 21 32 23 33 22 34
REMARK H PARENT 15 27 18 28
ROOT
ATOM      1  C   UNL     1     -38.666 151.492   5.637  1.00  0.00    +0.129 A 
ATOM      2  C   UNL     1     -38.617 151.607   4.247  1.00  0.00    +0.049 A 
ATOM      3  C   UNL     1     -39.303 150.690   3.440  1.00  0.00    +0.031 A 
ATOM      4  C   UNL     1     -40.033 149.646   4.011  1.00  0.00    +0.061 A 
ATOM      5  C   UNL     1     -40.046 149.527   5.414  1.00  0.00    +0.068 A 
ATOM      6 Cl   UNL     1     -40.910 148.240   6.190  1.00  0.00    -0.082 Cl
ATOM      7  C   UNL     1     -39.364 150.440   6.223  1.00  0.00    +0.069 A 
ENDROOT
BRANCH   1   8
ATOM      8  O   UNL     1     -37.994 152.335   6.494  1.00  0.00    -0.457 OA
BRANCH   8   9
ATOM      9  C   UNL     1     -36.626 152.431   6.344  1.00  0.00    +0.138 A 
ATOM     10  C   UNL     1     -34.851 155.998   4.968  1.00  0.00    +0.162 A 
ATOM     11  C   UNL     1     -34.095 154.854   5.252  1.00  0.00    +0.079 A 
ATOM     12  C   UNL     1     -36.245 155.966   5.140  1.00  0.00    +0.161 A 
ATOM     13  C   UNL     1     -34.681 153.679   5.701  1.00  0.00    +0.078 A 
ATOM     14  C   UNL     1     -36.847 154.790   5.592  1.00  0.00    +0.064 A 
ATOM     15  N   UNL     1     -33.890 152.619   5.951  1.00  0.00    -0.256 NA
ATOM     16  C   UNL     1     -36.076 153.641   5.877  1.00  0.00    +0.047 A 
ATOM     17  C   UNL     1     -34.464 151.473   6.375  1.00  0.00    +0.115 A 
ATOM     18  C   UNL     1     -35.817 151.323   6.580  1.00  0.00    +0.068 A 
BRANCH  10  19
ATOM     19  O   UNL     1     -34.324 157.185   4.522  1.00  0.00    -0.493 OA
ATOM     20  C   UNL     1     -33.036 157.553   4.993  1.00  0.00    +0.278 C 
ENDBRANCH  10  19
BRANCH  12  21
ATOM     21  O   UNL     1     -36.919 157.123   4.844  1.00  0.00    -0.493 OA
ATOM     22  C   UNL     1     -37.769 157.120   3.706  1.00  0.00    +0.278 C 
ENDBRANCH  12  21
ENDBRANCH   8   9
ENDBRANCH   1   8
BRANCH   4  23
ATOM     23  N   UNL     1     -40.742 148.684   3.250  1.00  0.00    -0.306 N 
ATOM     24  C   UNL     1     -40.229 147.581   2.579  1.00  0.00    +0.324 C 
ATOM     25  O   UNL     1     -39.038 147.321   2.491  1.00  0.00    -0.248 OA
ATOM     26  N   UNL     1     -41.258 146.831   2.039  1.00  0.00    -0.289 N 
ATOM     27  H   UNL     1     -41.704 148.927   3.060  1.00  0.00    +0.171 HD
ATOM     28  H   UNL     1     -42.201 147.031   2.325  1.00  0.00    +0.173 HD
BRANCH  26  29
ATOM     29  C   UNL     1     -41.085 145.710   1.248  1.00  0.00    +0.177 A 
ATOM     30  C   UNL     1     -40.909 145.768  -0.158  1.00  0.00    +0.095 A 
ATOM     31  N   UNL     1     -41.041 144.443   1.670  1.00  0.00    -0.062 NA
ATOM     32  C   UNL     1     -40.766 144.460  -0.547  1.00  0.00    +0.135 A 
ATOM     33  O   UNL     1     -40.845 143.663   0.549  1.00  0.00    -0.360 OA
ATOM     34  C   UNL     1     -40.555 143.782  -1.836  1.00  0.00    +0.091 C 
ENDBRANCH  26  29
ENDBRANCH   4  23
TORSDOF 6
ENDMDL
MODEL 9
REMARK VINA RESULT:    -8.206      3.753      6.939
REMARK INTER + INTRA:         -11.255
REMARK INTER:                 -11.670
REMARK INTRA:                   0.415
REMARK UNBOUND:                -0.170
REMARK SMILES COc1cc2nccc(Oc3ccc(NC(=O)Nc4cc(C)on4)c(Cl)c3)c2cc1OC
REMARK SMILES IDX 11 1 12 2 13 3 14 4 25 5 26 6 27 7 10 8 9 9 3 10 4 11 30 12
REMARK SMILES IDX 5 13 29 14 6 15 28 16 7 17 8 18 2 19 1 20 31 21 32 22 15 23
REMARK SMILES IDX 16 24 17 25 18 26 19 29 20 30 24 31 21 32 23 33 22 34
REMARK H PARENT 15 27 18 28
ROOT
ATOM      1  C   UNL     1     -37.320 162.663  -7.451  1.00  0.00    +0.129 A 
ATOM      2  C   UNL     1     -37.919 161.447  -7.119  1.00  0.00    +0.049 A 
ATOM      3  C   UNL     1     -38.532 161.282  -5.871  1.00  0.00    +0.031 A 
ATOM      4  C   UNL     1     -38.544 162.323  -4.940  1.00  0.00    +0.061 A 
ATOM      5  C   UNL     1     -37.906 163.532  -5.280  1.00  0.00    +0.068 A 
ATOM      6 Cl   UNL     1     -37.859 164.857  -4.163  1.00  0.00    -0.082 Cl
ATOM      7  C   UNL     1     -37.295 163.702  -6.524  1.00  0.00    +0.069 A 
ENDROOT
BRANCH   1   8
ATOM      8  O   UNL     1     -36.672 162.891  -8.645  1.00  0.00    -0.457 OA
BRANCH   8   9
ATOM      9  C   UNL     1     -37.454 163.189  -9.742  1.00  0.00    +0.138 A 
ATOM     10  C   UNL     1     -37.241 166.976 -11.579  1.00  0.00    +0.162 A 
ATOM     11  C   UNL     1     -38.127 165.987 -12.020  1.00  0.00    +0.079 A 
ATOM     12  C   UNL     1     -36.394 166.711 -10.490  1.00  0.00    +0.161 A 
ATOM     13  C   UNL     1     -38.200 164.742 -11.412  1.00  0.00    +0.078 A 
ATOM     14  C   UNL     1     -36.457 165.462  -9.869  1.00  0.00    +0.064 A 
ATOM     15  N   UNL     1     -39.078 163.841 -11.889  1.00  0.00    -0.256 NA
ATOM     16  C   UNL     1     -37.354 164.469 -10.322  1.00  0.00    +0.047 A 
ATOM     17  C   UNL     1     -39.156 162.635 -11.288  1.00  0.00    +0.115 A 
ATOM     18  C   UNL     1     -38.379 162.262 -10.215  1.00  0.00    +0.068 A 
BRANCH  10  19
ATOM     19  O   UNL     1     -37.127 168.224 -12.143  1.00  0.00    -0.493 OA
ATOM     20  C   UNL     1     -37.938 169.263 -11.614  1.00  0.00    +0.278 C 
ENDBRANCH  10  19
BRANCH  12  21
ATOM     21  O   UNL     1     -35.553 167.727 -10.114  1.00  0.00    -0.493 OA
ATOM     22  C   UNL     1     -34.669 168.253 -11.094  1.00  0.00    +0.278 C 
ENDBRANCH  12  21
ENDBRANCH   8   9
ENDBRANCH   1   8
BRANCH   4  23
ATOM     23  N   UNL     1     -39.140 162.216  -3.660  1.00  0.00    -0.306 N 
ATOM     24  C   UNL     1     -39.051 161.160  -2.762  1.00  0.00    +0.324 C 
ATOM     25  O   UNL     1     -38.480 160.104  -2.995  1.00  0.00    -0.248 OA
ATOM     26  N   UNL     1     -39.693 161.483  -1.580  1.00  0.00    -0.289 N 
ATOM     27  H   UNL     1     -39.825 162.931  -3.456  1.00  0.00    +0.171 HD
ATOM     28  H   UNL     1     -39.967 162.438  -1.427  1.00  0.00    +0.173 HD
BRANCH  26  29
ATOM     29  C   UNL     1     -39.850 160.623  -0.508  1.00  0.00    +0.177 A 
ATOM     30  C   UNL     1     -41.102 160.361   0.103  1.00  0.00    +0.095 A 
ATOM     31  N   UNL     1     -38.886 159.916   0.087  1.00  0.00    -0.062 NA
ATOM     32  C   UNL     1     -40.824 159.464   1.102  1.00  0.00    +0.135 A 
ATOM     33  O   UNL     1     -39.494 159.195   1.095  1.00  0.00    -0.360 OA
ATOM     34  C   UNL     1     -41.626 158.770   2.123  1.00  0.00    +0.091 C 
ENDBRANCH  26  29
ENDBRANCH   4  23
TORSDOF 6
ENDMDL
MODEL 10
REMARK VINA RESULT:    -8.169      4.232     12.341
REMARK INTER + INTRA:         -11.205
REMARK INTER:                 -12.168
REMARK INTRA:                   0.964
REMARK UNBOUND:                -0.170
REMARK SMILES COc1cc2nccc(Oc3ccc(NC(=O)Nc4cc(C)on4)c(Cl)c3)c2cc1OC
REMARK SMILES IDX 11 1 12 2 13 3 14 4 25 5 26 6 27 7 10 8 9 9 3 10 4 11 30 12
REMARK SMILES IDX 5 13 29 14 6 15 28 16 7 17 8 18 2 19 1 20 31 21 32 22 15 23
REMARK SMILES IDX 16 24 17 25 18 26 19 29 20 30 24 31 21 32 23 33 22 34
REMARK H PARENT 15 27 18 28
ROOT
ATOM      1  C   UNL     1     -38.571 162.655  -5.887  1.00  0.00    +0.129 A 
ATOM      2  C   UNL     1     -38.594 164.047  -5.784  1.00  0.00    +0.049 A 
ATOM      3  C   UNL     1     -38.260 164.841  -6.889  1.00  0.00    +0.031 A 
ATOM      4  C   UNL     1     -37.891 164.254  -8.101  1.00  0.00    +0.061 A 
ATOM      5  C   UNL     1     -37.843 162.848  -8.178  1.00  0.00    +0.068 A 
ATOM      6 Cl   UNL     1     -37.368 162.054  -9.643  1.00  0.00    -0.082 Cl
ATOM      7  C   UNL     1     -38.177 162.053  -7.079  1.00  0.00    +0.069 A 
ENDROOT
BRANCH   1   8
ATOM      8  O   UNL     1     -38.857 161.810  -4.839  1.00  0.00    -0.457 OA
BRANCH   8   9
ATOM      9  C   UNL     1     -38.824 162.346  -3.567  1.00  0.00    +0.138 A 
ATOM     10  C   UNL     1     -38.774 159.847  -0.173  1.00  0.00    +0.162 A 
ATOM     11  C   UNL     1     -38.801 161.242  -0.067  1.00  0.00    +0.079 A 
ATOM     12  C   UNL     1     -38.767 159.250  -1.445  1.00  0.00    +0.161 A 
ATOM     13  C   UNL     1     -38.822 162.064  -1.185  1.00  0.00    +0.078 A 
ATOM     14  C   UNL     1     -38.787 160.065  -2.578  1.00  0.00    +0.064 A 
ATOM     15  N   UNL     1     -38.849 163.397  -1.005  1.00  0.00    -0.256 NA
ATOM     16  C   UNL     1     -38.813 161.473  -2.461  1.00  0.00    +0.047 A 
ATOM     17  C   UNL     1     -38.882 164.195  -2.093  1.00  0.00    +0.115 A 
ATOM     18  C   UNL     1     -38.879 163.725  -3.387  1.00  0.00    +0.068 A 
BRANCH  10  19
ATOM     19  O   UNL     1     -38.753 158.987   0.898  1.00  0.00    -0.493 OA
ATOM     20  C   UNL     1     -39.863 159.009   1.783  1.00  0.00    +0.278 C 
ENDBRANCH  10  19
BRANCH  12  21
ATOM     21  O   UNL     1     -38.740 157.879  -1.472  1.00  0.00    -0.493 OA
ATOM     22  C   UNL     1     -39.623 157.216  -2.366  1.00  0.00    +0.278 C 
ENDBRANCH  12  21
ENDBRANCH   8   9
ENDBRANCH   1   8
BRANCH   4  23
ATOM     23  N   UNL     1     -37.536 165.001  -9.252  1.00  0.00    -0.306 N 
ATOM     24  C   UNL     1     -37.165 166.338  -9.319  1.00  0.00    +0.324 C 
ATOM     25  O   UNL     1     -37.165 167.102  -8.365  1.00  0.00    -0.248 OA
ATOM     26  N   UNL     1     -36.797 166.665 -10.612  1.00  0.00    -0.289 N 
ATOM     27  H   UNL     1     -37.725 164.535 -10.128  1.00  0.00    +0.171 HD
ATOM     28  H   UNL     1     -36.658 165.923 -11.276  1.00  0.00    +0.173 HD
BRANCH  26  29
ATOM     29  C   UNL     1     -36.446 167.934 -11.034  1.00  0.00    +0.177 A 
ATOM     30  C   UNL     1     -37.364 169.012 -11.112  1.00  0.00    +0.095 A 
ATOM     31  N   UNL     1     -35.226 168.335 -11.404  1.00  0.00    -0.062 NA
ATOM     32  C   UNL     1     -36.620 170.075 -11.559  1.00  0.00    +0.135 A 
ATOM     33  O   UNL     1     -35.336 169.671 -11.735  1.00  0.00    -0.360 OA
ATOM     34  C   UNL     1     -36.911 171.484 -11.867  1.00  0.00    +0.091 C 
ENDBRANCH  26  29
ENDBRANCH   4  23
TORSDOF 6
ENDMDL
