REMARK SMILES CN(C)c1ccc(/C=C2\C(=O)Nc3ccccc32)c2ccccc12
REMARK SMILES IDX 4 1 5 2 6 3 7 4 19 5 20 6 21 7 22 8 23 9 24 10 2 11 1 12
REMARK SMILES IDX 3 13 8 14 9 15 10 16 18 17 11 18 12 19 17 20 13 21 16 22
REMARK SMILES IDX 14 23 15 24
REMARK H PARENT 12 25
ROOT
ATOM      1  C   UNL     1      -2.890  -0.537   0.387  1.00  0.00    +0.044 A 
ATOM      2  C   UNL     1      -1.987  -1.291   1.150  1.00  0.00    +0.027 A 
ATOM      3  C   UNL     1      -0.630  -1.313   0.840  1.00  0.00    +0.011 A 
ATOM      4  C   UNL     1      -0.136  -0.568  -0.236  1.00  0.00    -0.017 A 
ATOM      5  C   UNL     1      -1.016   0.211  -1.032  1.00  0.00    -0.009 A 
ATOM      6  C   UNL     1      -0.571   0.986  -2.132  1.00  0.00    +0.009 A 
ATOM      7  C   UNL     1      -1.450   1.739  -2.910  1.00  0.00    +0.001 A 
ATOM      8  C   UNL     1      -2.803   1.738  -2.612  1.00  0.00    +0.001 A 
ATOM      9  C   UNL     1      -3.269   0.989  -1.531  1.00  0.00    +0.011 A 
ATOM     10  C   UNL     1      -2.403   0.222  -0.718  1.00  0.00    +0.006 A 
ENDROOT
BRANCH   1  11
ATOM     11  N   UNL     1      -4.272  -0.483   0.726  1.00  0.00    -0.377 N 
ATOM     12  C   UNL     1      -4.882  -1.783   1.006  1.00  0.00    +0.143 C 
ATOM     13  C   UNL     1      -4.500   0.528   1.764  1.00  0.00    +0.143 C 
ENDBRANCH   1  11
BRANCH   4  14
ATOM     14  C   UNL     1       1.304  -0.661  -0.531  1.00  0.00    +0.023 C 
ATOM     15  C   UNL     1       2.291  -0.119   0.197  1.00  0.00    +0.050 C 
ATOM     16  C   UNL     1       2.169   0.696   1.462  1.00  0.00    +0.256 C 
ATOM     17  C   UNL     1       3.721  -0.204  -0.121  1.00  0.00    +0.011 A 
ATOM     18  O   UNL     1       1.170   1.002   2.081  1.00  0.00    -0.269 OA
ATOM     19  N   UNL     1       3.475   1.031   1.795  1.00  0.00    -0.321 N 
ATOM     20  C   UNL     1       4.435  -0.811  -1.139  1.00  0.00    +0.011 A 
ATOM     21  C   UNL     1       4.385   0.511   0.880  1.00  0.00    +0.049 A 
ATOM     22  C   UNL     1       5.829  -0.683  -1.131  1.00  0.00    +0.001 A 
ATOM     23  C   UNL     1       5.757   0.650   0.908  1.00  0.00    +0.027 A 
ATOM     24  C   UNL     1       6.484   0.041  -0.117  1.00  0.00    +0.002 A 
ATOM     25  H   UNL     1       3.700   1.583   2.607  1.00  0.00    +0.170 HD
ENDBRANCH   4  14
TORSDOF 2
