MODEL 1
REMARK VINA RESULT:    -9.302      0.000      0.000
REMARK INTER + INTRA:         -10.801
REMARK INTER:                 -10.390
REMARK INTRA:                  -0.412
REMARK UNBOUND:                -0.412
REMARK SMILES CN(C)c1ccc(/C=C2\C(=O)Nc3ccccc32)c2ccccc12
REMARK SMILES IDX 4 1 5 2 6 3 7 4 19 5 20 6 21 7 22 8 23 9 24 10 2 11 1 12
REMARK SMILES IDX 3 13 8 14 9 15 10 16 18 17 11 18 12 19 17 20 13 21 16 22
REMARK SMILES IDX 14 23 15 24
REMARK H PARENT 12 25
ROOT
ATOM      1  C   UNL     1     -37.985 161.947  -6.420  1.00  0.00    +0.044 A 
ATOM      2  C   UNL     1     -38.527 160.686  -6.133  1.00  0.00    +0.027 A 
ATOM      3  C   UNL     1     -39.240 160.462  -4.959  1.00  0.00    +0.011 A 
ATOM      4  C   UNL     1     -39.442 161.500  -4.043  1.00  0.00    -0.017 A 
ATOM      5  C   UNL     1     -38.913 162.792  -4.296  1.00  0.00    -0.009 A 
ATOM      6  C   UNL     1     -39.089 163.880  -3.405  1.00  0.00    +0.009 A 
ATOM      7  C   UNL     1     -38.554 165.142  -3.664  1.00  0.00    +0.001 A 
ATOM      8  C   UNL     1     -37.825 165.353  -4.823  1.00  0.00    +0.001 A 
ATOM      9  C   UNL     1     -37.641 164.302  -5.721  1.00  0.00    +0.011 A 
ATOM     10  C   UNL     1     -38.176 163.014  -5.492  1.00  0.00    +0.006 A 
ENDROOT
BRANCH   1  11
ATOM     11  N   UNL     1     -37.289 162.188  -7.638  1.00  0.00    -0.377 N 
ATOM     12  C   UNL     1     -36.370 161.121  -8.037  1.00  0.00    +0.143 C 
ATOM     13  C   UNL     1     -38.229 162.599  -8.686  1.00  0.00    +0.143 C 
ENDBRANCH   1  11
BRANCH   4  14
ATOM     14  C   UNL     1     -40.176 161.188  -2.804  1.00  0.00    +0.023 C 
ATOM     15  C   UNL     1     -39.715 160.451  -1.783  1.00  0.00    +0.050 C 
ATOM     16  C   UNL     1     -38.368 159.780  -1.658  1.00  0.00    +0.256 C 
ATOM     17  C   UNL     1     -40.466 160.133  -0.563  1.00  0.00    +0.011 A 
ATOM     18  O   UNL     1     -37.434 159.791  -2.434  1.00  0.00    -0.269 OA
ATOM     19  N   UNL     1     -38.407 159.133  -0.431  1.00  0.00    -0.321 N 
ATOM     20  C   UNL     1     -41.732 160.462  -0.112  1.00  0.00    +0.011 A 
ATOM     21  C   UNL     1     -39.624 159.333   0.214  1.00  0.00    +0.049 A 
ATOM     22  C   UNL     1     -42.134 159.970   1.135  1.00  0.00    +0.001 A 
ATOM     23  C   UNL     1     -39.999 158.837   1.445  1.00  0.00    +0.027 A 
ATOM     24  C   UNL     1     -41.276 159.164   1.907  1.00  0.00    +0.002 A 
ATOM     25  H   UNL     1     -37.632 158.594  -0.080  1.00  0.00    +0.170 HD
ENDBRANCH   4  14
TORSDOF 2
ENDMDL
MODEL 2
REMARK VINA RESULT:    -9.021      2.192      7.522
REMARK INTER + INTRA:         -10.487
REMARK INTER:                  -9.786
REMARK INTRA:                  -0.701
REMARK UNBOUND:                -0.412
REMARK SMILES CN(C)c1ccc(/C=C2\C(=O)Nc3ccccc32)c2ccccc12
REMARK SMILES IDX 4 1 5 2 6 3 7 4 19 5 20 6 21 7 22 8 23 9 24 10 2 11 1 12
REMARK SMILES IDX 3 13 8 14 9 15 10 16 18 17 11 18 12 19 17 20 13 21 16 22
REMARK SMILES IDX 14 23 15 24
REMARK H PARENT 12 25
ROOT
ATOM      1  C   UNL     1     -39.009 158.677   1.554  1.00  0.00    +0.044 A 
ATOM      2  C   UNL     1     -37.852 158.761   0.766  1.00  0.00    +0.027 A 
ATOM      3  C   UNL     1     -37.851 159.467  -0.434  1.00  0.00    +0.011 A 
ATOM      4  C   UNL     1     -39.007 160.122  -0.872  1.00  0.00    -0.017 A 
ATOM      5  C   UNL     1     -40.198 160.064  -0.103  1.00  0.00    -0.009 A 
ATOM      6  C   UNL     1     -41.397 160.710  -0.498  1.00  0.00    +0.009 A 
ATOM      7  C   UNL     1     -42.562 160.636   0.265  1.00  0.00    +0.001 A 
ATOM      8  C   UNL     1     -42.565 159.912   1.446  1.00  0.00    +0.001 A 
ATOM      9  C   UNL     1     -41.397 159.271   1.863  1.00  0.00    +0.011 A 
ATOM     10  C   UNL     1     -40.198 159.333   1.117  1.00  0.00    +0.006 A 
ENDROOT
BRANCH   1  11
ATOM     11  N   UNL     1     -39.001 157.988   2.800  1.00  0.00    -0.377 N 
ATOM     12  C   UNL     1     -38.587 156.587   2.719  1.00  0.00    +0.143 C 
ATOM     13  C   UNL     1     -38.282 158.774   3.809  1.00  0.00    +0.143 C 
ENDBRANCH   1  11
BRANCH   4  14
ATOM     14  C   UNL     1     -38.949 160.823  -2.166  1.00  0.00    +0.023 C 
ATOM     15  C   UNL     1     -38.805 162.145  -2.337  1.00  0.00    +0.050 C 
ATOM     16  C   UNL     1     -38.671 163.208  -1.273  1.00  0.00    +0.256 C 
ATOM     17  C   UNL     1     -38.768 162.831  -3.633  1.00  0.00    +0.011 A 
ATOM     18  O   UNL     1     -38.643 163.081  -0.065  1.00  0.00    -0.269 OA
ATOM     19  N   UNL     1     -38.573 164.402  -1.974  1.00  0.00    -0.321 N 
ATOM     20  C   UNL     1     -38.842 162.394  -4.944  1.00  0.00    +0.011 A 
ATOM     21  C   UNL     1     -38.628 164.193  -3.349  1.00  0.00    +0.049 A 
ATOM     22  C   UNL     1     -38.774 163.353  -5.962  1.00  0.00    +0.001 A 
ATOM     23  C   UNL     1     -38.558 165.154  -4.335  1.00  0.00    +0.027 A 
ATOM     24  C   UNL     1     -38.634 164.720  -5.660  1.00  0.00    +0.002 A 
ATOM     25  H   UNL     1     -38.474 165.292  -1.513  1.00  0.00    +0.170 HD
ENDBRANCH   4  14
TORSDOF 2
ENDMDL
MODEL 3
REMARK VINA RESULT:    -8.621      1.591      7.361
REMARK INTER + INTRA:         -10.040
REMARK INTER:                 -11.082
REMARK INTRA:                   1.041
REMARK UNBOUND:                -0.412
REMARK SMILES CN(C)c1ccc(/C=C2\C(=O)Nc3ccccc32)c2ccccc12
REMARK SMILES IDX 4 1 5 2 6 3 7 4 19 5 20 6 21 7 22 8 23 9 24 10 2 11 1 12
REMARK SMILES IDX 3 13 8 14 9 15 10 16 18 17 11 18 12 19 17 20 13 21 16 22
REMARK SMILES IDX 14 23 15 24
REMARK H PARENT 12 25
ROOT
ATOM      1  C   UNL     1     -39.153 158.873   1.116  1.00  0.00    +0.044 A 
ATOM      2  C   UNL     1     -37.946 159.251   0.509  1.00  0.00    +0.027 A 
ATOM      3  C   UNL     1     -37.899 160.307  -0.396  1.00  0.00    +0.011 A 
ATOM      4  C   UNL     1     -39.057 161.026  -0.709  1.00  0.00    -0.017 A 
ATOM      5  C   UNL     1     -40.298 160.678  -0.115  1.00  0.00    -0.009 A 
ATOM      6  C   UNL     1     -41.502 161.372  -0.393  1.00  0.00    +0.009 A 
ATOM      7  C   UNL     1     -42.716 161.012   0.192  1.00  0.00    +0.001 A 
ATOM      8  C   UNL     1     -42.762 159.945   1.074  1.00  0.00    +0.001 A 
ATOM      9  C   UNL     1     -41.591 159.247   1.372  1.00  0.00    +0.011 A 
ATOM     10  C   UNL     1     -40.344 159.592   0.801  1.00  0.00    +0.006 A 
ENDROOT
BRANCH   1  11
ATOM     11  N   UNL     1     -39.196 157.818   2.071  1.00  0.00    -0.377 N 
ATOM     12  C   UNL     1     -37.925 157.555   2.746  1.00  0.00    +0.143 C 
ATOM     13  C   UNL     1     -40.335 158.001   2.977  1.00  0.00    +0.143 C 
ENDBRANCH   1  11
BRANCH   4  14
ATOM     14  C   UNL     1     -38.945 162.110  -1.700  1.00  0.00    +0.023 C 
ATOM     15  C   UNL     1     -38.859 161.954  -3.029  1.00  0.00    +0.050 C 
ATOM     16  C   UNL     1     -38.857 160.663  -3.811  1.00  0.00    +0.256 C 
ATOM     17  C   UNL     1     -38.728 163.044  -4.002  1.00  0.00    +0.011 A 
ATOM     18  O   UNL     1     -38.954 159.522  -3.405  1.00  0.00    -0.269 OA
ATOM     19  N   UNL     1     -38.725 161.053  -5.138  1.00  0.00    -0.321 N 
ATOM     20  C   UNL     1     -38.675 164.422  -3.886  1.00  0.00    +0.011 A 
ATOM     21  C   UNL     1     -38.650 162.437  -5.258  1.00  0.00    +0.049 A 
ATOM     22  C   UNL     1     -38.541 165.176  -5.058  1.00  0.00    +0.001 A 
ATOM     23  C   UNL     1     -38.518 163.159  -6.426  1.00  0.00    +0.027 A 
ATOM     24  C   UNL     1     -38.463 164.550  -6.316  1.00  0.00    +0.002 A 
ATOM     25  H   UNL     1     -38.692 160.389  -5.895  1.00  0.00    +0.170 HD
ENDBRANCH   4  14
TORSDOF 2
ENDMDL
MODEL 4
REMARK VINA RESULT:    -8.002      2.498      4.518
REMARK INTER + INTRA:          -9.349
REMARK INTER:                 -10.734
REMARK INTRA:                   1.385
REMARK UNBOUND:                -0.412
REMARK SMILES CN(C)c1ccc(/C=C2\C(=O)Nc3ccccc32)c2ccccc12
REMARK SMILES IDX 4 1 5 2 6 3 7 4 19 5 20 6 21 7 22 8 23 9 24 10 2 11 1 12
REMARK SMILES IDX 3 13 8 14 9 15 10 16 18 17 11 18 12 19 17 20 13 21 16 22
REMARK SMILES IDX 14 23 15 24
REMARK H PARENT 12 25
ROOT
ATOM      1  C   UNL     1     -37.660 164.784  -8.730  1.00  0.00    +0.044 A 
ATOM      2  C   UNL     1     -38.232 165.307  -7.561  1.00  0.00    +0.027 A 
ATOM      3  C   UNL     1     -38.524 164.485  -6.476  1.00  0.00    +0.011 A 
ATOM      4  C   UNL     1     -38.238 163.117  -6.526  1.00  0.00    -0.017 A 
ATOM      5  C   UNL     1     -37.656 162.548  -7.689  1.00  0.00    -0.009 A 
ATOM      6  C   UNL     1     -37.344 161.170  -7.794  1.00  0.00    +0.009 A 
ATOM      7  C   UNL     1     -36.781 160.624  -8.948  1.00  0.00    +0.001 A 
ATOM      8  C   UNL     1     -36.515 161.443 -10.034  1.00  0.00    +0.001 A 
ATOM      9  C   UNL     1     -36.807 162.805  -9.957  1.00  0.00    +0.011 A 
ATOM     10  C   UNL     1     -37.370 163.390  -8.799  1.00  0.00    +0.006 A 
ENDROOT
BRANCH   1  11
ATOM     11  N   UNL     1     -37.326 165.630  -9.826  1.00  0.00    -0.377 N 
ATOM     12  C   UNL     1     -38.235 165.535 -10.968  1.00  0.00    +0.143 C 
ATOM     13  C   UNL     1     -37.086 166.998  -9.356  1.00  0.00    +0.143 C 
ENDBRANCH   1  11
BRANCH   4  14
ATOM     14  C   UNL     1     -38.602 162.297  -5.357  1.00  0.00    +0.023 C 
ATOM     15  C   UNL     1     -38.651 162.721  -4.086  1.00  0.00    +0.050 C 
ATOM     16  C   UNL     1     -38.353 164.104  -3.558  1.00  0.00    +0.256 C 
ATOM     17  C   UNL     1     -38.996 161.887  -2.929  1.00  0.00    +0.011 A 
ATOM     18  O   UNL     1     -38.036 165.104  -4.170  1.00  0.00    -0.269 OA
ATOM     19  N   UNL     1     -38.528 164.004  -2.184  1.00  0.00    -0.321 N 
ATOM     20  C   UNL     1     -39.359 160.559  -2.788  1.00  0.00    +0.011 A 
ATOM     21  C   UNL     1     -38.903 162.717  -1.809  1.00  0.00    +0.049 A 
ATOM     22  C   UNL     1     -39.624 160.083  -1.499  1.00  0.00    +0.001 A 
ATOM     23  C   UNL     1     -39.160 162.271  -0.530  1.00  0.00    +0.027 A 
ATOM     24  C   UNL     1     -39.525 160.931  -0.379  1.00  0.00    +0.002 A 
ATOM     25  H   UNL     1     -38.393 164.786  -1.565  1.00  0.00    +0.170 HD
ENDBRANCH   4  14
TORSDOF 2
ENDMDL
MODEL 5
REMARK VINA RESULT:    -7.955     14.378     16.031
REMARK INTER + INTRA:          -9.297
REMARK INTER:                  -8.498
REMARK INTRA:                  -0.798
REMARK UNBOUND:                -0.412
REMARK SMILES CN(C)c1ccc(/C=C2\C(=O)Nc3ccccc32)c2ccccc12
REMARK SMILES IDX 4 1 5 2 6 3 7 4 19 5 20 6 21 7 22 8 23 9 24 10 2 11 1 12
REMARK SMILES IDX 3 13 8 14 9 15 10 16 18 17 11 18 12 19 17 20 13 21 16 22
REMARK SMILES IDX 14 23 15 24
REMARK H PARENT 12 25
ROOT
ATOM      1  C   UNL     1     -35.152 147.849   0.843  1.00  0.00    +0.044 A 
ATOM      2  C   UNL     1     -36.425 148.405   1.032  1.00  0.00    +0.027 A 
ATOM      3  C   UNL     1     -37.427 148.244   0.079  1.00  0.00    +0.011 A 
ATOM      4  C   UNL     1     -37.186 147.508  -1.086  1.00  0.00    -0.017 A 
ATOM      5  C   UNL     1     -35.912 146.926  -1.315  1.00  0.00    -0.009 A 
ATOM      6  C   UNL     1     -35.612 146.169  -2.475  1.00  0.00    +0.009 A 
ATOM      7  C   UNL     1     -34.352 145.611  -2.690  1.00  0.00    +0.001 A 
ATOM      8  C   UNL     1     -33.352 145.795  -1.750  1.00  0.00    +0.001 A 
ATOM      9  C   UNL     1     -33.619 146.530  -0.594  1.00  0.00    +0.011 A 
ATOM     10  C   UNL     1     -34.888 147.102  -0.343  1.00  0.00    +0.006 A 
ENDROOT
BRANCH   1  11
ATOM     11  N   UNL     1     -34.138 147.980   1.834  1.00  0.00    -0.377 N 
ATOM     12  C   UNL     1     -33.726 149.357   2.106  1.00  0.00    +0.143 C 
ATOM     13  C   UNL     1     -34.495 147.208   3.030  1.00  0.00    +0.143 C 
ENDBRANCH   1  11
BRANCH   4  14
ATOM     14  C   UNL     1     -38.277 147.404  -2.069  1.00  0.00    +0.023 C 
ATOM     15  C   UNL     1     -39.212 146.443  -2.105  1.00  0.00    +0.050 C 
ATOM     16  C   UNL     1     -39.369 145.268  -1.171  1.00  0.00    +0.256 C 
ATOM     17  C   UNL     1     -40.283 146.342  -3.103  1.00  0.00    +0.011 A 
ATOM     18  O   UNL     1     -38.705 144.970  -0.199  1.00  0.00    -0.269 OA
ATOM     19  N   UNL     1     -40.469 144.573  -1.657  1.00  0.00    -0.321 N 
ATOM     20  C   UNL     1     -40.647 147.118  -4.190  1.00  0.00    +0.011 A 
ATOM     21  C   UNL     1     -41.008 145.192  -2.781  1.00  0.00    +0.049 A 
ATOM     22  C   UNL     1     -41.753 146.712  -4.946  1.00  0.00    +0.001 A 
ATOM     23  C   UNL     1     -42.101 144.773  -3.511  1.00  0.00    +0.027 A 
ATOM     24  C   UNL     1     -42.473 145.550  -4.610  1.00  0.00    +0.002 A 
ATOM     25  H   UNL     1     -40.809 143.730  -1.224  1.00  0.00    +0.170 HD
ENDBRANCH   4  14
TORSDOF 2
ENDMDL
MODEL 6
REMARK VINA RESULT:    -7.874     10.598     13.352
REMARK INTER + INTRA:          -9.206
REMARK INTER:                  -8.538
REMARK INTRA:                  -0.668
REMARK UNBOUND:                -0.412
REMARK SMILES CN(C)c1ccc(/C=C2\C(=O)Nc3ccccc32)c2ccccc12
REMARK SMILES IDX 4 1 5 2 6 3 7 4 19 5 20 6 21 7 22 8 23 9 24 10 2 11 1 12
REMARK SMILES IDX 3 13 8 14 9 15 10 16 18 17 11 18 12 19 17 20 13 21 16 22
REMARK SMILES IDX 14 23 15 24
REMARK H PARENT 12 25
ROOT
ATOM      1  C   UNL     1     -36.075 155.974   6.331  1.00  0.00    +0.044 A 
ATOM      2  C   UNL     1     -37.472 155.903   6.427  1.00  0.00    +0.027 A 
ATOM      3  C   UNL     1     -38.124 154.676   6.521  1.00  0.00    +0.011 A 
ATOM      4  C   UNL     1     -37.392 153.484   6.535  1.00  0.00    -0.017 A 
ATOM      5  C   UNL     1     -35.976 153.512   6.443  1.00  0.00    -0.009 A 
ATOM      6  C   UNL     1     -35.184 152.336   6.454  1.00  0.00    +0.009 A 
ATOM      7  C   UNL     1     -33.794 152.380   6.353  1.00  0.00    +0.001 A 
ATOM      8  C   UNL     1     -33.152 153.603   6.236  1.00  0.00    +0.001 A 
ATOM      9  C   UNL     1     -33.906 154.777   6.228  1.00  0.00    +0.011 A 
ATOM     10  C   UNL     1     -35.316 154.767   6.336  1.00  0.00    +0.006 A 
ENDROOT
BRANCH   1  11
ATOM     11  N   UNL     1     -35.406 157.229   6.274  1.00  0.00    -0.377 N 
ATOM     12  C   UNL     1     -35.228 157.764   4.924  1.00  0.00    +0.143 C 
ATOM     13  C   UNL     1     -36.011 158.170   7.222  1.00  0.00    +0.143 C 
ENDBRANCH   1  11
BRANCH   4  14
ATOM     14  C   UNL     1     -38.143 152.219   6.602  1.00  0.00    +0.023 C 
ATOM     15  C   UNL     1     -38.698 151.579   5.562  1.00  0.00    +0.050 C 
ATOM     16  C   UNL     1     -38.687 151.990   4.110  1.00  0.00    +0.256 C 
ATOM     17  C   UNL     1     -39.460 150.329   5.648  1.00  0.00    +0.011 A 
ATOM     18  O   UNL     1     -38.162 152.954   3.591  1.00  0.00    -0.269 OA
ATOM     19  N   UNL     1     -39.416 151.003   3.458  1.00  0.00    -0.321 N 
ATOM     20  C   UNL     1     -39.800 149.492   6.696  1.00  0.00    +0.011 A 
ATOM     21  C   UNL     1     -39.869 150.032   4.345  1.00  0.00    +0.049 A 
ATOM     22  C   UNL     1     -40.560 148.352   6.407  1.00  0.00    +0.001 A 
ATOM     23  C   UNL     1     -40.618 148.915   4.037  1.00  0.00    +0.027 A 
ATOM     24  C   UNL     1     -40.965 148.067   5.090  1.00  0.00    +0.002 A 
ATOM     25  H   UNL     1     -39.576 151.019   2.463  1.00  0.00    +0.170 HD
ENDBRANCH   4  14
TORSDOF 2
ENDMDL
MODEL 7
REMARK VINA RESULT:    -7.871     10.505     14.727
REMARK INTER + INTRA:          -9.203
REMARK INTER:                  -8.513
REMARK INTRA:                  -0.690
REMARK UNBOUND:                -0.412
REMARK SMILES CN(C)c1ccc(/C=C2\C(=O)Nc3ccccc32)c2ccccc12
REMARK SMILES IDX 4 1 5 2 6 3 7 4 19 5 20 6 21 7 22 8 23 9 24 10 2 11 1 12
REMARK SMILES IDX 3 13 8 14 9 15 10 16 18 17 11 18 12 19 17 20 13 21 16 22
REMARK SMILES IDX 14 23 15 24
REMARK H PARENT 12 25
ROOT
ATOM      1  C   UNL     1     -35.995 149.412   7.303  1.00  0.00    +0.044 A 
ATOM      2  C   UNL     1     -35.259 150.354   8.036  1.00  0.00    +0.027 A 
ATOM      3  C   UNL     1     -35.448 151.720   7.842  1.00  0.00    +0.011 A 
ATOM      4  C   UNL     1     -36.391 152.181   6.917  1.00  0.00    -0.017 A 
ATOM      5  C   UNL     1     -37.158 151.260   6.157  1.00  0.00    -0.009 A 
ATOM      6  C   UNL     1     -38.128 151.671   5.208  1.00  0.00    +0.009 A 
ATOM      7  C   UNL     1     -38.867 150.753   4.462  1.00  0.00    +0.001 A 
ATOM      8  C   UNL     1     -38.658 149.396   4.641  1.00  0.00    +0.001 A 
ATOM      9  C   UNL     1     -37.714 148.962   5.573  1.00  0.00    +0.011 A 
ATOM     10  C   UNL     1     -36.954 149.866   6.351  1.00  0.00    +0.006 A 
ENDROOT
BRANCH   1  11
ATOM     11  N   UNL     1     -35.830 148.015   7.528  1.00  0.00    -0.377 N 
ATOM     12  C   UNL     1     -34.492 147.504   7.229  1.00  0.00    +0.143 C 
ATOM     13  C   UNL     1     -36.333 147.653   8.858  1.00  0.00    +0.143 C 
ENDBRANCH   1  11
BRANCH   4  14
ATOM     14  C   UNL     1     -36.518 153.637   6.736  1.00  0.00    +0.023 C 
ATOM     15  C   UNL     1     -35.694 154.414   6.018  1.00  0.00    +0.050 C 
ATOM     16  C   UNL     1     -34.468 153.995   5.242  1.00  0.00    +0.256 C 
ATOM     17  C   UNL     1     -35.823 155.867   5.863  1.00  0.00    +0.011 A 
ATOM     18  O   UNL     1     -34.000 152.885   5.093  1.00  0.00    -0.269 OA
ATOM     19  N   UNL     1     -33.969 155.175   4.705  1.00  0.00    -0.321 N 
ATOM     20  C   UNL     1     -36.734 156.797   6.332  1.00  0.00    +0.011 A 
ATOM     21  C   UNL     1     -34.752 156.269   5.060  1.00  0.00    +0.049 A 
ATOM     22  C   UNL     1     -36.545 158.138   5.979  1.00  0.00    +0.001 A 
ATOM     23  C   UNL     1     -34.546 157.585   4.700  1.00  0.00    +0.027 A 
ATOM     24  C   UNL     1     -35.461 158.529   5.171  1.00  0.00    +0.002 A 
ATOM     25  H   UNL     1     -33.141 155.199   4.132  1.00  0.00    +0.170 HD
ENDBRANCH   4  14
TORSDOF 2
ENDMDL
MODEL 8
REMARK VINA RESULT:    -7.866     14.273     16.130
REMARK INTER + INTRA:          -9.197
REMARK INTER:                  -8.496
REMARK INTRA:                  -0.701
REMARK UNBOUND:                -0.412
REMARK SMILES CN(C)c1ccc(/C=C2\C(=O)Nc3ccccc32)c2ccccc12
REMARK SMILES IDX 4 1 5 2 6 3 7 4 19 5 20 6 21 7 22 8 23 9 24 10 2 11 1 12
REMARK SMILES IDX 3 13 8 14 9 15 10 16 18 17 11 18 12 19 17 20 13 21 16 22
REMARK SMILES IDX 14 23 15 24
REMARK H PARENT 12 25
ROOT
ATOM      1  C   UNL     1     -37.999 147.921   1.291  1.00  0.00    +0.044 A 
ATOM      2  C   UNL     1     -39.390 147.742   1.273  1.00  0.00    +0.027 A 
ATOM      3  C   UNL     1     -40.060 147.455   0.087  1.00  0.00    +0.011 A 
ATOM      4  C   UNL     1     -39.354 147.324  -1.113  1.00  0.00    -0.017 A 
ATOM      5  C   UNL     1     -37.945 147.494  -1.138  1.00  0.00    -0.009 A 
ATOM      6  C   UNL     1     -37.179 147.372  -2.324  1.00  0.00    +0.009 A 
ATOM      7  C   UNL     1     -35.796 147.551  -2.333  1.00  0.00    +0.001 A 
ATOM      8  C   UNL     1     -35.137 147.862  -1.155  1.00  0.00    +0.001 A 
ATOM      9  C   UNL     1     -35.865 147.983   0.030  1.00  0.00    +0.011 A 
ATOM     10  C   UNL     1     -37.266 147.799   0.074  1.00  0.00    +0.006 A 
ENDROOT
BRANCH   1  11
ATOM     11  N   UNL     1     -37.307 148.178   2.509  1.00  0.00    -0.377 N 
ATOM     12  C   UNL     1     -37.874 149.259   3.316  1.00  0.00    +0.143 C 
ATOM     13  C   UNL     1     -37.091 146.926   3.242  1.00  0.00    +0.143 C 
ENDBRANCH   1  11
BRANCH   4  14
ATOM     14  C   UNL     1     -40.127 147.052  -2.337  1.00  0.00    +0.023 C 
ATOM     15  C   UNL     1     -40.544 145.847  -2.751  1.00  0.00    +0.050 C 
ATOM     16  C   UNL     1     -40.328 144.511  -2.080  1.00  0.00    +0.256 C 
ATOM     17  C   UNL     1     -41.297 145.589  -3.984  1.00  0.00    +0.011 A 
ATOM     18  O   UNL     1     -39.763 144.264  -1.034  1.00  0.00    -0.269 OA
ATOM     19  N   UNL     1     -40.935 143.589  -2.922  1.00  0.00    -0.321 N 
ATOM     20  C   UNL     1     -41.780 146.405  -4.991  1.00  0.00    +0.011 A 
ATOM     21  C   UNL     1     -41.502 144.207  -4.033  1.00  0.00    +0.049 A 
ATOM     22  C   UNL     1     -42.473 145.804  -6.048  1.00  0.00    +0.001 A 
ATOM     23  C   UNL     1     -42.181 143.593  -5.064  1.00  0.00    +0.027 A 
ATOM     24  C   UNL     1     -42.671 144.411  -6.085  1.00  0.00    +0.002 A 
ATOM     25  H   UNL     1     -40.946 142.602  -2.723  1.00  0.00    +0.170 HD
ENDBRANCH   4  14
TORSDOF 2
ENDMDL
MODEL 9
REMARK VINA RESULT:    -7.764      1.954      7.540
REMARK INTER + INTRA:          -9.084
REMARK INTER:                  -9.342
REMARK INTRA:                   0.258
REMARK UNBOUND:                -0.412
REMARK SMILES CN(C)c1ccc(/C=C2\C(=O)Nc3ccccc32)c2ccccc12
REMARK SMILES IDX 4 1 5 2 6 3 7 4 19 5 20 6 21 7 22 8 23 9 24 10 2 11 1 12
REMARK SMILES IDX 3 13 8 14 9 15 10 16 18 17 11 18 12 19 17 20 13 21 16 22
REMARK SMILES IDX 14 23 15 24
REMARK H PARENT 12 25
ROOT
ATOM      1  C   UNL     1     -38.987 160.869  -3.006  1.00  0.00    +0.044 A 
ATOM      2  C   UNL     1     -39.003 160.238  -4.258  1.00  0.00    +0.027 A 
ATOM      3  C   UNL     1     -38.861 160.972  -5.433  1.00  0.00    +0.011 A 
ATOM      4  C   UNL     1     -38.685 162.359  -5.386  1.00  0.00    -0.017 A 
ATOM      5  C   UNL     1     -38.660 163.036  -4.139  1.00  0.00    -0.009 A 
ATOM      6  C   UNL     1     -38.483 164.438  -4.031  1.00  0.00    +0.009 A 
ATOM      7  C   UNL     1     -38.470 165.090  -2.798  1.00  0.00    +0.001 A 
ATOM      8  C   UNL     1     -38.636 164.358  -1.634  1.00  0.00    +0.001 A 
ATOM      9  C   UNL     1     -38.806 162.975  -1.708  1.00  0.00    +0.011 A 
ATOM     10  C   UNL     1     -38.816 162.284  -2.942  1.00  0.00    +0.006 A 
ENDROOT
BRANCH   1  11
ATOM     11  N   UNL     1     -39.093 160.116  -1.802  1.00  0.00    -0.377 N 
ATOM     12  C   UNL     1     -40.389 160.220  -1.131  1.00  0.00    +0.143 C 
ATOM     13  C   UNL     1     -38.635 158.740  -2.024  1.00  0.00    +0.143 C 
ENDBRANCH   1  11
BRANCH   4  14
ATOM     14  C   UNL     1     -38.575 163.080  -6.665  1.00  0.00    +0.023 C 
ATOM     15  C   UNL     1     -37.669 162.842  -7.625  1.00  0.00    +0.050 C 
ATOM     16  C   UNL     1     -36.572 161.804  -7.627  1.00  0.00    +0.256 C 
ATOM     17  C   UNL     1     -37.559 163.582  -8.887  1.00  0.00    +0.011 A 
ATOM     18  O   UNL     1     -36.306 160.972  -6.784  1.00  0.00    -0.269 OA
ATOM     19  N   UNL     1     -35.910 161.991  -8.833  1.00  0.00    -0.321 N 
ATOM     20  C   UNL     1     -38.276 164.628  -9.442  1.00  0.00    +0.011 A 
ATOM     21  C   UNL     1     -36.478 163.023  -9.573  1.00  0.00    +0.049 A 
ATOM     22  C   UNL     1     -37.882 165.100 -10.700  1.00  0.00    +0.001 A 
ATOM     23  C   UNL     1     -36.072 163.472 -10.813  1.00  0.00    +0.027 A 
ATOM     24  C   UNL     1     -36.790 164.528 -11.379  1.00  0.00    +0.002 A 
ATOM     25  H   UNL     1     -35.120 161.429  -9.107  1.00  0.00    +0.170 HD
ENDBRANCH   4  14
TORSDOF 2
ENDMDL
MODEL 10
REMARK VINA RESULT:    -7.367     12.616     15.035
REMARK INTER + INTRA:          -8.640
REMARK INTER:                  -7.850
REMARK INTRA:                  -0.790
REMARK UNBOUND:                -0.412
REMARK SMILES CN(C)c1ccc(/C=C2\C(=O)Nc3ccccc32)c2ccccc12
REMARK SMILES IDX 4 1 5 2 6 3 7 4 19 5 20 6 21 7 22 8 23 9 24 10 2 11 1 12
REMARK SMILES IDX 3 13 8 14 9 15 10 16 18 17 11 18 12 19 17 20 13 21 16 22
REMARK SMILES IDX 14 23 15 24
REMARK H PARENT 12 25
ROOT
ATOM      1  C   UNL     1     -39.570 147.990   5.400  1.00  0.00    +0.044 A 
ATOM      2  C   UNL     1     -38.906 148.191   6.618  1.00  0.00    +0.027 A 
ATOM      3  C   UNL     1     -38.276 149.399   6.902  1.00  0.00    +0.011 A 
ATOM      4  C   UNL     1     -38.306 150.449   5.977  1.00  0.00    -0.017 A 
ATOM      5  C   UNL     1     -38.970 150.288   4.733  1.00  0.00    -0.009 A 
ATOM      6  C   UNL     1     -39.034 151.317   3.760  1.00  0.00    +0.009 A 
ATOM      7  C   UNL     1     -39.682 151.141   2.538  1.00  0.00    +0.001 A 
ATOM      8  C   UNL     1     -40.286 149.927   2.251  1.00  0.00    +0.001 A 
ATOM      9  C   UNL     1     -40.245 148.898   3.192  1.00  0.00    +0.011 A 
ATOM     10  C   UNL     1     -39.603 149.048   4.443  1.00  0.00    +0.006 A 
ENDROOT
BRANCH   1  11
ATOM     11  N   UNL     1     -40.247 146.768   5.124  1.00  0.00    -0.377 N 
ATOM     12  C   UNL     1     -39.366 145.626   4.879  1.00  0.00    +0.143 C 
ATOM     13  C   UNL     1     -41.285 146.526   6.131  1.00  0.00    +0.143 C 
ENDBRANCH   1  11
BRANCH   4  14
ATOM     14  C   UNL     1     -37.593 151.690   6.324  1.00  0.00    +0.023 C 
ATOM     15  C   UNL     1     -36.295 151.939   6.095  1.00  0.00    +0.050 C 
ATOM     16  C   UNL     1     -35.279 151.034   5.443  1.00  0.00    +0.256 C 
ATOM     17  C   UNL     1     -35.594 153.174   6.465  1.00  0.00    +0.011 A 
ATOM     18  O   UNL     1     -35.431 149.922   4.979  1.00  0.00    -0.269 OA
ATOM     19  N   UNL     1     -34.092 151.755   5.471  1.00  0.00    -0.321 N 
ATOM     20  C   UNL     1     -35.993 154.348   7.079  1.00  0.00    +0.011 A 
ATOM     21  C   UNL     1     -34.266 153.002   6.063  1.00  0.00    +0.049 A 
ATOM     22  C   UNL     1     -35.031 155.344   7.282  1.00  0.00    +0.001 A 
ATOM     23  C   UNL     1     -33.301 153.969   6.253  1.00  0.00    +0.027 A 
ATOM     24  C   UNL     1     -33.697 155.156   6.873  1.00  0.00    +0.002 A 
ATOM     25  H   UNL     1     -33.230 151.390   5.098  1.00  0.00    +0.170 HD
ENDBRANCH   4  14
TORSDOF 2
ENDMDL
