MODEL 1
REMARK VINA RESULT:   -11.363      0.000      0.000
REMARK INTER + INTRA:         -15.350
REMARK INTER:                 -15.349
REMARK INTRA:                  -0.001
REMARK UNBOUND:                -0.001
REMARK SMILES CNC(=O)c1cc(Oc2ccc(NC(=O)Nc3ccc(Cl)c(C(F)(F)F)c3)c(F)c2)ccn1
REMARK SMILES IDX 9 1 10 2 11 3 12 4 28 5 29 6 30 7 8 8 7 9 5 10 6 11 33 12
REMARK SMILES IDX 32 13 31 14 3 15 2 16 4 17 1 18 13 20 14 21 15 22 16 23
REMARK SMILES IDX 17 26 18 27 27 28 19 29 22 30 20 31 21 32 23 33 24 34 25 35
REMARK SMILES IDX 26 36
REMARK H PARENT 2 19 13 24 16 25
ROOT
ATOM      1  C   UNL     1     -39.932 160.794   0.011  1.00  0.00    +0.130 A 
ATOM      2  C   UNL     1     -38.614 160.449   0.324  1.00  0.00    +0.049 A 
ATOM      3  C   UNL     1     -38.351 159.449   1.269  1.00  0.00    +0.033 A 
ATOM      4  C   UNL     1     -39.405 158.782   1.895  1.00  0.00    +0.079 A 
ATOM      5  C   UNL     1     -40.718 159.122   1.540  1.00  0.00    +0.150 A 
ATOM      6  F   UNL     1     -41.744 158.475   2.119  1.00  0.00    -0.205 F 
ATOM      7  C   UNL     1     -40.991 160.114   0.605  1.00  0.00    +0.088 A 
ENDROOT
BRANCH   1   8
ATOM      8  O   UNL     1     -40.250 161.744  -0.931  1.00  0.00    -0.457 OA
BRANCH   8   9
ATOM      9  C   UNL     1     -39.596 161.681  -2.141  1.00  0.00    +0.131 A 
ATOM     10  C   UNL     1     -38.656 162.839  -3.985  1.00  0.00    +0.131 A 
ATOM     11  C   UNL     1     -39.345 162.886  -2.784  1.00  0.00    +0.081 A 
ATOM     12  N   UNL     1     -38.201 161.687  -4.560  1.00  0.00    -0.251 NA
ATOM     13  C   UNL     1     -38.446 160.542  -3.888  1.00  0.00    +0.116 A 
ATOM     14  C   UNL     1     -39.127 160.487  -2.684  1.00  0.00    +0.067 A 
BRANCH  10  15
ATOM     15  C   UNL     1     -38.368 164.109  -4.728  1.00  0.00    +0.269 C 
ATOM     16  N   UNL     1     -38.543 164.020  -6.093  1.00  0.00    -0.354 N 
ATOM     17  O   UNL     1     -37.999 165.123  -4.145  1.00  0.00    -0.268 OA
ATOM     18  C   UNL     1     -38.196 165.089  -6.987  1.00  0.00    +0.143 C 
ATOM     19  H   UNL     1     -38.753 163.092  -6.454  1.00  0.00    +0.163 HD
ENDBRANCH  10  15
ENDBRANCH   8   9
ENDBRANCH   1   8
BRANCH   4  20
ATOM     20  N   UNL     1     -39.245 157.756   2.853  1.00  0.00    -0.305 N 
ATOM     21  C   UNL     1     -38.075 157.103   3.203  1.00  0.00    +0.323 C 
ATOM     22  O   UNL     1     -36.965 157.387   2.774  1.00  0.00    -0.248 OA
ATOM     23  N   UNL     1     -38.344 156.084   4.105  1.00  0.00    -0.308 N 
ATOM     24  H   UNL     1     -40.055 157.597   3.439  1.00  0.00    +0.171 HD
ATOM     25  H   UNL     1     -39.317 155.834   4.204  1.00  0.00    +0.171 HD
BRANCH  23  26
ATOM     26  C   UNL     1     -37.415 155.251   4.762  1.00  0.00    +0.043 A 
ATOM     27  C   UNL     1     -37.505 153.862   4.808  1.00  0.00    +0.028 A 
ATOM     28  C   UNL     1     -36.325 155.875   5.387  1.00  0.00    +0.040 A 
ATOM     29  C   UNL     1     -36.533 153.111   5.475  1.00  0.00    +0.023 A 
ATOM     30  C   UNL     1     -35.335 155.132   6.064  1.00  0.00    +0.076 A 
ATOM     31  C   UNL     1     -35.455 153.740   6.101  1.00  0.00    +0.053 A 
ATOM     32 Cl   UNL     1     -34.299 152.739   6.900  1.00  0.00    -0.084 Cl
BRANCH  30  33
ATOM     33  C   UNL     1     -34.184 155.840   6.723  1.00  0.00    +0.417 C 
ATOM     34  F   UNL     1     -34.253 157.194   6.608  1.00  0.00    -0.166 F 
ATOM     35  F   UNL     1     -32.972 155.469   6.228  1.00  0.00    -0.166 F 
ATOM     36  F   UNL     1     -34.113 155.597   8.065  1.00  0.00    -0.166 F 
ENDBRANCH  30  33
ENDBRANCH  23  26
ENDBRANCH   4  20
TORSDOF 6
ENDMDL
MODEL 2
REMARK VINA RESULT:   -11.022      1.976      2.584
REMARK INTER + INTRA:         -14.890
REMARK INTER:                 -14.313
REMARK INTRA:                  -0.577
REMARK UNBOUND:                -0.001
REMARK SMILES CNC(=O)c1cc(Oc2ccc(NC(=O)Nc3ccc(Cl)c(C(F)(F)F)c3)c(F)c2)ccn1
REMARK SMILES IDX 9 1 10 2 11 3 12 4 28 5 29 6 30 7 8 8 7 9 5 10 6 11 33 12
REMARK SMILES IDX 32 13 31 14 3 15 2 16 4 17 1 18 13 20 14 21 15 22 16 23
REMARK SMILES IDX 17 26 18 27 27 28 19 29 22 30 20 31 21 32 23 33 24 34 25 35
REMARK SMILES IDX 26 36
REMARK H PARENT 2 19 13 24 16 25
ROOT
ATOM      1  C   UNL     1     -39.726 160.321  -1.772  1.00  0.00    +0.130 A 
ATOM      2  C   UNL     1     -38.658 159.435  -1.596  1.00  0.00    +0.049 A 
ATOM      3  C   UNL     1     -38.505 158.745  -0.387  1.00  0.00    +0.033 A 
ATOM      4  C   UNL     1     -39.425 158.927   0.645  1.00  0.00    +0.079 A 
ATOM      5  C   UNL     1     -40.507 159.794   0.433  1.00  0.00    +0.150 A 
ATOM      6  F   UNL     1     -41.413 159.965   1.410  1.00  0.00    -0.205 F 
ATOM      7  C   UNL     1     -40.668 160.486  -0.762  1.00  0.00    +0.088 A 
ENDROOT
BRANCH   1   8
ATOM      8  O   UNL     1     -39.945 161.000  -2.947  1.00  0.00    -0.457 OA
BRANCH   8   9
ATOM      9  C   UNL     1     -39.284 162.194  -3.123  1.00  0.00    +0.131 A 
ATOM     10  C   UNL     1     -38.227 163.712  -4.608  1.00  0.00    +0.131 A 
ATOM     11  C   UNL     1     -38.862 162.497  -4.412  1.00  0.00    +0.081 A 
ATOM     12  N   UNL     1     -38.007 164.627  -3.620  1.00  0.00    -0.251 NA
ATOM     13  C   UNL     1     -38.455 164.302  -2.388  1.00  0.00    +0.116 A 
ATOM     14  C   UNL     1     -39.099 163.113  -2.093  1.00  0.00    +0.067 A 
BRANCH  10  15
ATOM     15  C   UNL     1     -37.742 164.085  -5.976  1.00  0.00    +0.269 C 
ATOM     16  N   UNL     1     -38.121 165.346  -6.388  1.00  0.00    -0.354 N 
ATOM     17  O   UNL     1     -37.074 163.312  -6.653  1.00  0.00    -0.268 OA
ATOM     18  C   UNL     1     -37.862 165.836  -7.713  1.00  0.00    +0.143 C 
ATOM     19  H   UNL     1     -38.758 165.842  -5.769  1.00  0.00    +0.163 HD
ENDBRANCH  10  15
ENDBRANCH   8   9
ENDBRANCH   1   8
BRANCH   4  20
ATOM     20  N   UNL     1     -39.364 158.273   1.896  1.00  0.00    -0.305 N 
ATOM     21  C   UNL     1     -38.233 157.835   2.564  1.00  0.00    +0.323 C 
ATOM     22  O   UNL     1     -37.084 158.030   2.190  1.00  0.00    -0.248 OA
ATOM     23  N   UNL     1     -38.590 157.145   3.714  1.00  0.00    -0.308 N 
ATOM     24  H   UNL     1     -40.236 158.264   2.410  1.00  0.00    +0.171 HD
ATOM     25  H   UNL     1     -39.562 156.884   3.782  1.00  0.00    +0.171 HD
BRANCH  23  26
ATOM     26  C   UNL     1     -37.731 156.622   4.703  1.00  0.00    +0.043 A 
ATOM     27  C   UNL     1     -37.007 157.402   5.601  1.00  0.00    +0.028 A 
ATOM     28  C   UNL     1     -37.625 155.226   4.786  1.00  0.00    +0.040 A 
ATOM     29  C   UNL     1     -36.184 156.801   6.557  1.00  0.00    +0.023 A 
ATOM     30  C   UNL     1     -36.799 154.603   5.746  1.00  0.00    +0.076 A 
ATOM     31  C   UNL     1     -36.079 155.410   6.630  1.00  0.00    +0.053 A 
ATOM     32 Cl   UNL     1     -35.042 154.749   7.841  1.00  0.00    -0.084 Cl
BRANCH  30  33
ATOM     33  C   UNL     1     -36.711 153.103   5.800  1.00  0.00    +0.417 C 
ATOM     34  F   UNL     1     -37.591 152.485   4.966  1.00  0.00    -0.166 F 
ATOM     35  F   UNL     1     -36.935 152.597   7.044  1.00  0.00    -0.166 F 
ATOM     36  F   UNL     1     -35.482 152.632   5.438  1.00  0.00    -0.166 F 
ENDBRANCH  30  33
ENDBRANCH  23  26
ENDBRANCH   4  20
TORSDOF 6
ENDMDL
MODEL 3
REMARK VINA RESULT:   -10.907      2.138      2.826
REMARK INTER + INTRA:         -14.734
REMARK INTER:                 -14.084
REMARK INTRA:                  -0.650
REMARK UNBOUND:                -0.001
REMARK SMILES CNC(=O)c1cc(Oc2ccc(NC(=O)Nc3ccc(Cl)c(C(F)(F)F)c3)c(F)c2)ccn1
REMARK SMILES IDX 9 1 10 2 11 3 12 4 28 5 29 6 30 7 8 8 7 9 5 10 6 11 33 12
REMARK SMILES IDX 32 13 31 14 3 15 2 16 4 17 1 18 13 20 14 21 15 22 16 23
REMARK SMILES IDX 17 26 18 27 27 28 19 29 22 30 20 31 21 32 23 33 24 34 25 35
REMARK SMILES IDX 26 36
REMARK H PARENT 2 19 13 24 16 25
ROOT
ATOM      1  C   UNL     1     -39.509 161.205  -2.188  1.00  0.00    +0.130 A 
ATOM      2  C   UNL     1     -39.214 161.600  -0.880  1.00  0.00    +0.049 A 
ATOM      3  C   UNL     1     -38.713 160.671   0.042  1.00  0.00    +0.033 A 
ATOM      4  C   UNL     1     -38.493 159.349  -0.344  1.00  0.00    +0.079 A 
ATOM      5  C   UNL     1     -38.764 158.985  -1.671  1.00  0.00    +0.150 A 
ATOM      6  F   UNL     1     -38.539 157.721  -2.065  1.00  0.00    -0.205 F 
ATOM      7  C   UNL     1     -39.264 159.898  -2.595  1.00  0.00    +0.088 A 
ENDROOT
BRANCH   1   8
ATOM      8  O   UNL     1     -39.971 162.080  -3.144  1.00  0.00    -0.457 OA
BRANCH   8   9
ATOM      9  C   UNL     1     -39.036 162.808  -3.844  1.00  0.00    +0.131 A 
ATOM     10  C   UNL     1     -37.655 162.997  -5.763  1.00  0.00    +0.131 A 
ATOM     11  C   UNL     1     -38.570 162.257  -5.031  1.00  0.00    +0.081 A 
ATOM     12  N   UNL     1     -37.201 164.230  -5.395  1.00  0.00    -0.251 NA
ATOM     13  C   UNL     1     -37.699 164.737  -4.247  1.00  0.00    +0.116 A 
ATOM     14  C   UNL     1     -38.614 164.074  -3.447  1.00  0.00    +0.067 A 
BRANCH  10  15
ATOM     15  C   UNL     1     -37.111 162.446  -7.047  1.00  0.00    +0.269 C 
ATOM     16  N   UNL     1     -37.908 162.682  -8.147  1.00  0.00    -0.354 N 
ATOM     17  O   UNL     1     -36.049 161.835  -7.083  1.00  0.00    -0.268 OA
ATOM     18  C   UNL     1     -37.622 162.127  -9.441  1.00  0.00    +0.143 C 
ATOM     19  H   UNL     1     -38.810 163.113  -7.959  1.00  0.00    +0.163 HD
ENDBRANCH  10  15
ENDBRANCH   8   9
ENDBRANCH   1   8
BRANCH   4  20
ATOM     20  N   UNL     1     -37.984 158.342   0.505  1.00  0.00    -0.305 N 
ATOM     21  C   UNL     1     -37.999 158.319   1.890  1.00  0.00    +0.323 C 
ATOM     22  O   UNL     1     -38.544 159.159   2.594  1.00  0.00    -0.248 OA
ATOM     23  N   UNL     1     -37.309 157.211   2.360  1.00  0.00    -0.308 N 
ATOM     24  H   UNL     1     -37.717 157.488   0.033  1.00  0.00    +0.171 HD
ATOM     25  H   UNL     1     -36.741 156.729   1.679  1.00  0.00    +0.171 HD
BRANCH  23  26
ATOM     26  C   UNL     1     -37.174 156.789   3.699  1.00  0.00    +0.043 A 
ATOM     27  C   UNL     1     -38.160 156.105   4.406  1.00  0.00    +0.028 A 
ATOM     28  C   UNL     1     -35.957 157.066   4.339  1.00  0.00    +0.040 A 
ATOM     29  C   UNL     1     -37.940 155.715   5.730  1.00  0.00    +0.023 A 
ATOM     30  C   UNL     1     -35.719 156.679   5.675  1.00  0.00    +0.076 A 
ATOM     31  C   UNL     1     -36.728 156.000   6.362  1.00  0.00    +0.053 A 
ATOM     32 Cl   UNL     1     -36.538 155.482   7.997  1.00  0.00    -0.084 Cl
BRANCH  30  33
ATOM     33  C   UNL     1     -34.401 156.998   6.325  1.00  0.00    +0.417 C 
ATOM     34  F   UNL     1     -34.525 157.783   7.429  1.00  0.00    -0.166 F 
ATOM     35  F   UNL     1     -33.532 157.633   5.491  1.00  0.00    -0.166 F 
ATOM     36  F   UNL     1     -33.738 155.882   6.751  1.00  0.00    -0.166 F 
ENDBRANCH  30  33
ENDBRANCH  23  26
ENDBRANCH   4  20
TORSDOF 6
ENDMDL
MODEL 4
REMARK VINA RESULT:   -10.889      5.318     11.710
REMARK INTER + INTRA:         -14.709
REMARK INTER:                 -14.076
REMARK INTRA:                  -0.634
REMARK UNBOUND:                -0.001
REMARK SMILES CNC(=O)c1cc(Oc2ccc(NC(=O)Nc3ccc(Cl)c(C(F)(F)F)c3)c(F)c2)ccn1
REMARK SMILES IDX 9 1 10 2 11 3 12 4 28 5 29 6 30 7 8 8 7 9 5 10 6 11 33 12
REMARK SMILES IDX 32 13 31 14 3 15 2 16 4 17 1 18 13 20 14 21 15 22 16 23
REMARK SMILES IDX 17 26 18 27 27 28 19 29 22 30 20 31 21 32 23 33 24 34 25 35
REMARK SMILES IDX 26 36
REMARK H PARENT 2 19 13 24 16 25
ROOT
ATOM      1  C   UNL     1     -39.125 158.143   2.517  1.00  0.00    +0.130 A 
ATOM      2  C   UNL     1     -40.148 159.062   2.269  1.00  0.00    +0.049 A 
ATOM      3  C   UNL     1     -40.309 159.611   0.990  1.00  0.00    +0.033 A 
ATOM      4  C   UNL     1     -39.457 159.233  -0.048  1.00  0.00    +0.079 A 
ATOM      5  C   UNL     1     -38.460 158.284   0.218  1.00  0.00    +0.150 A 
ATOM      6  F   UNL     1     -37.643 157.893  -0.776  1.00  0.00    -0.205 F 
ATOM      7  C   UNL     1     -38.289 157.733   1.483  1.00  0.00    +0.088 A 
ENDROOT
BRANCH   1   8
ATOM      8  O   UNL     1     -38.939 157.547   3.742  1.00  0.00    -0.457 OA
BRANCH   8   9
ATOM      9  C   UNL     1     -37.644 157.324   4.151  1.00  0.00    +0.131 A 
ATOM     10  C   UNL     1     -35.998 155.778   4.876  1.00  0.00    +0.131 A 
ATOM     11  C   UNL     1     -37.308 156.022   4.497  1.00  0.00    +0.081 A 
ATOM     12  N   UNL     1     -35.024 156.733   4.913  1.00  0.00    -0.251 NA
ATOM     13  C   UNL     1     -35.388 157.980   4.546  1.00  0.00    +0.116 A 
ATOM     14  C   UNL     1     -36.672 158.322   4.154  1.00  0.00    +0.067 A 
BRANCH  10  15
ATOM     15  C   UNL     1     -35.583 154.393   5.270  1.00  0.00    +0.269 C 
ATOM     16  N   UNL     1     -34.265 154.286   5.661  1.00  0.00    -0.354 N 
ATOM     17  O   UNL     1     -36.368 153.452   5.229  1.00  0.00    -0.268 OA
ATOM     18  C   UNL     1     -33.646 153.022   5.953  1.00  0.00    +0.143 C 
ATOM     19  H   UNL     1     -33.699 155.124   5.551  1.00  0.00    +0.163 HD
ENDBRANCH  10  15
ENDBRANCH   8   9
ENDBRANCH   1   8
BRANCH   4  20
ATOM     20  N   UNL     1     -39.542 159.720  -1.371  1.00  0.00    -0.305 N 
ATOM     21  C   UNL     1     -39.082 160.934  -1.853  1.00  0.00    +0.323 C 
ATOM     22  O   UNL     1     -38.446 161.748  -1.197  1.00  0.00    -0.248 OA
ATOM     23  N   UNL     1     -39.447 161.093  -3.183  1.00  0.00    -0.308 N 
ATOM     24  H   UNL     1     -39.842 159.036  -2.053  1.00  0.00    +0.171 HD
ATOM     25  H   UNL     1     -40.140 160.445  -3.525  1.00  0.00    +0.171 HD
BRANCH  23  26
ATOM     26  C   UNL     1     -39.095 162.148  -4.049  1.00  0.00    +0.043 A 
ATOM     27  C   UNL     1     -39.149 163.496  -3.702  1.00  0.00    +0.028 A 
ATOM     28  C   UNL     1     -38.646 161.801  -5.331  1.00  0.00    +0.040 A 
ATOM     29  C   UNL     1     -38.773 164.479  -4.621  1.00  0.00    +0.023 A 
ATOM     30  C   UNL     1     -38.261 162.782  -6.271  1.00  0.00    +0.076 A 
ATOM     31  C   UNL     1     -38.332 164.126  -5.899  1.00  0.00    +0.053 A 
ATOM     32 Cl   UNL     1     -37.885 165.402  -6.971  1.00  0.00    -0.084 Cl
BRANCH  30  33
ATOM     33  C   UNL     1     -37.788 162.367  -7.637  1.00  0.00    +0.417 C 
ATOM     34  F   UNL     1     -36.485 162.684  -7.871  1.00  0.00    -0.166 F 
ATOM     35  F   UNL     1     -38.511 162.924  -8.647  1.00  0.00    -0.166 F 
ATOM     36  F   UNL     1     -37.870 161.019  -7.838  1.00  0.00    -0.166 F 
ENDBRANCH  30  33
ENDBRANCH  23  26
ENDBRANCH   4  20
TORSDOF 6
ENDMDL
MODEL 5
REMARK VINA RESULT:   -10.563      5.892      9.320
REMARK INTER + INTRA:         -14.270
REMARK INTER:                 -13.969
REMARK INTRA:                  -0.301
REMARK UNBOUND:                -0.001
REMARK SMILES CNC(=O)c1cc(Oc2ccc(NC(=O)Nc3ccc(Cl)c(C(F)(F)F)c3)c(F)c2)ccn1
REMARK SMILES IDX 9 1 10 2 11 3 12 4 28 5 29 6 30 7 8 8 7 9 5 10 6 11 33 12
REMARK SMILES IDX 32 13 31 14 3 15 2 16 4 17 1 18 13 20 14 21 15 22 16 23
REMARK SMILES IDX 17 26 18 27 27 28 19 29 22 30 20 31 21 32 23 33 24 34 25 35
REMARK SMILES IDX 26 36
REMARK H PARENT 2 19 13 24 16 25
ROOT
ATOM      1  C   UNL     1     -37.966 163.611  -8.542  1.00  0.00    +0.130 A 
ATOM      2  C   UNL     1     -37.842 162.314  -8.034  1.00  0.00    +0.049 A 
ATOM      3  C   UNL     1     -37.934 162.084  -6.655  1.00  0.00    +0.033 A 
ATOM      4  C   UNL     1     -38.164 163.147  -5.781  1.00  0.00    +0.079 A 
ATOM      5  C   UNL     1     -38.318 164.434  -6.318  1.00  0.00    +0.150 A 
ATOM      6  F   UNL     1     -38.560 165.465  -5.491  1.00  0.00    -0.205 F 
ATOM      7  C   UNL     1     -38.227 164.674  -7.684  1.00  0.00    +0.088 A 
ENDROOT
BRANCH   1   8
ATOM      8  O   UNL     1     -37.917 163.891  -9.887  1.00  0.00    -0.457 OA
BRANCH   8   9
ATOM      9  C   UNL     1     -36.707 164.291 -10.409  1.00  0.00    +0.131 A 
ATOM     10  C   UNL     1     -35.305 166.070 -11.110  1.00  0.00    +0.131 A 
ATOM     11  C   UNL     1     -36.530 165.652 -10.619  1.00  0.00    +0.081 A 
ATOM     12  N   UNL     1     -34.265 165.229 -11.383  1.00  0.00    -0.251 NA
ATOM     13  C   UNL     1     -34.472 163.917 -11.142  1.00  0.00    +0.116 A 
ATOM     14  C   UNL     1     -35.661 163.404 -10.653  1.00  0.00    +0.067 A 
BRANCH  10  15
ATOM     15  C   UNL     1     -35.063 167.527 -11.364  1.00  0.00    +0.269 C 
ATOM     16  N   UNL     1     -33.737 167.857 -11.553  1.00  0.00    -0.354 N 
ATOM     17  O   UNL     1     -35.984 168.336 -11.389  1.00  0.00    -0.268 OA
ATOM     18  C   UNL     1     -33.290 169.216 -11.684  1.00  0.00    +0.143 C 
ATOM     19  H   UNL     1     -33.067 167.106 -11.406  1.00  0.00    +0.163 HD
ENDBRANCH  10  15
ENDBRANCH   8   9
ENDBRANCH   1   8
BRANCH   4  20
ATOM     20  N   UNL     1     -38.281 163.019  -4.379  1.00  0.00    -0.305 N 
ATOM     21  C   UNL     1     -38.710 161.912  -3.666  1.00  0.00    +0.323 C 
ATOM     22  O   UNL     1     -38.982 160.827  -4.163  1.00  0.00    -0.248 OA
ATOM     23  N   UNL     1     -38.788 162.211  -2.314  1.00  0.00    -0.308 N 
ATOM     24  H   UNL     1     -37.864 163.774  -3.851  1.00  0.00    +0.171 HD
ATOM     25  H   UNL     1     -38.738 163.191  -2.080  1.00  0.00    +0.171 HD
BRANCH  23  26
ATOM     26  C   UNL     1     -39.099 161.331  -1.257  1.00  0.00    +0.043 A 
ATOM     27  C   UNL     1     -38.153 160.588  -0.554  1.00  0.00    +0.028 A 
ATOM     28  C   UNL     1     -40.448 161.223  -0.889  1.00  0.00    +0.040 A 
ATOM     29  C   UNL     1     -38.547 159.745   0.488  1.00  0.00    +0.023 A 
ATOM     30  C   UNL     1     -40.862 160.376   0.162  1.00  0.00    +0.076 A 
ATOM     31  C   UNL     1     -39.893 159.637   0.845  1.00  0.00    +0.053 A 
ATOM     32 Cl   UNL     1     -40.294 158.574   2.144  1.00  0.00    -0.084 Cl
BRANCH  30  33
ATOM     33  C   UNL     1     -42.319 160.286   0.523  1.00  0.00    +0.417 C 
ATOM     34  F   UNL     1     -42.754 161.344   1.260  1.00  0.00    -0.166 F 
ATOM     35  F   UNL     1     -42.628 159.165   1.230  1.00  0.00    -0.166 F 
ATOM     36  F   UNL     1     -43.134 160.255  -0.573  1.00  0.00    -0.166 F 
ENDBRANCH  30  33
ENDBRANCH  23  26
ENDBRANCH   4  20
TORSDOF 6
ENDMDL
MODEL 6
REMARK VINA RESULT:   -10.432      5.054     11.472
REMARK INTER + INTRA:         -14.093
REMARK INTER:                 -13.884
REMARK INTRA:                  -0.209
REMARK UNBOUND:                -0.001
REMARK SMILES CNC(=O)c1cc(Oc2ccc(NC(=O)Nc3ccc(Cl)c(C(F)(F)F)c3)c(F)c2)ccn1
REMARK SMILES IDX 9 1 10 2 11 3 12 4 28 5 29 6 30 7 8 8 7 9 5 10 6 11 33 12
REMARK SMILES IDX 32 13 31 14 3 15 2 16 4 17 1 18 13 20 14 21 15 22 16 23
REMARK SMILES IDX 17 26 18 27 27 28 19 29 22 30 20 31 21 32 23 33 24 34 25 35
REMARK SMILES IDX 26 36
REMARK H PARENT 2 19 13 24 16 25
ROOT
ATOM      1  C   UNL     1     -38.769 157.673   3.004  1.00  0.00    +0.130 A 
ATOM      2  C   UNL     1     -37.736 157.926   2.096  1.00  0.00    +0.049 A 
ATOM      3  C   UNL     1     -37.963 158.735   0.975  1.00  0.00    +0.033 A 
ATOM      4  C   UNL     1     -39.219 159.305   0.765  1.00  0.00    +0.079 A 
ATOM      5  C   UNL     1     -40.229 159.065   1.707  1.00  0.00    +0.150 A 
ATOM      6  F   UNL     1     -41.439 159.623   1.530  1.00  0.00    -0.205 F 
ATOM      7  C   UNL     1     -40.016 158.262   2.823  1.00  0.00    +0.088 A 
ENDROOT
BRANCH   1   8
ATOM      8  O   UNL     1     -38.595 156.915   4.137  1.00  0.00    -0.457 OA
BRANCH   8   9
ATOM      9  C   UNL     1     -37.350 156.926   4.724  1.00  0.00    +0.131 A 
ATOM     10  C   UNL     1     -35.422 155.712   5.381  1.00  0.00    +0.131 A 
ATOM     11  C   UNL     1     -36.690 155.708   4.825  1.00  0.00    +0.081 A 
ATOM     12  N   UNL     1     -34.783 156.836   5.819  1.00  0.00    -0.251 NA
ATOM     13  C   UNL     1     -35.452 158.000   5.680  1.00  0.00    +0.116 A 
ATOM     14  C   UNL     1     -36.722 158.098   5.139  1.00  0.00    +0.067 A 
BRANCH  10  15
ATOM     15  C   UNL     1     -34.668 154.424   5.523  1.00  0.00    +0.269 C 
ATOM     16  N   UNL     1     -35.411 153.298   5.237  1.00  0.00    -0.354 N 
ATOM     17  O   UNL     1     -33.493 154.403   5.874  1.00  0.00    -0.268 OA
ATOM     18  C   UNL     1     -34.905 151.968   5.437  1.00  0.00    +0.143 C 
ATOM     19  H   UNL     1     -36.400 153.452   5.057  1.00  0.00    +0.163 HD
ENDBRANCH  10  15
ENDBRANCH   8   9
ENDBRANCH   1   8
BRANCH   4  20
ATOM     20  N   UNL     1     -39.546 160.140  -0.326  1.00  0.00    -0.305 N 
ATOM     21  C   UNL     1     -38.888 160.236  -1.541  1.00  0.00    +0.323 C 
ATOM     22  O   UNL     1     -37.947 159.531  -1.881  1.00  0.00    -0.248 OA
ATOM     23  N   UNL     1     -39.448 161.244  -2.313  1.00  0.00    -0.308 N 
ATOM     24  H   UNL     1     -40.443 160.600  -0.250  1.00  0.00    +0.171 HD
ATOM     25  H   UNL     1     -40.070 161.872  -1.826  1.00  0.00    +0.171 HD
BRANCH  23  26
ATOM     26  C   UNL     1     -39.119 161.593  -3.639  1.00  0.00    +0.043 A 
ATOM     27  C   UNL     1     -39.086 160.691  -4.700  1.00  0.00    +0.028 A 
ATOM     28  C   UNL     1     -38.827 162.941  -3.893  1.00  0.00    +0.040 A 
ATOM     29  C   UNL     1     -38.757 161.124  -5.987  1.00  0.00    +0.023 A 
ATOM     30  C   UNL     1     -38.494 163.395  -5.188  1.00  0.00    +0.076 A 
ATOM     31  C   UNL     1     -38.462 162.467  -6.232  1.00  0.00    +0.053 A 
ATOM     32 Cl   UNL     1     -38.068 162.918  -7.850  1.00  0.00    -0.084 Cl
BRANCH  30  33
ATOM     33  C   UNL     1     -38.186 164.849  -5.417  1.00  0.00    +0.417 C 
ATOM     34  F   UNL     1     -38.717 165.333  -6.572  1.00  0.00    -0.166 F 
ATOM     35  F   UNL     1     -36.851 165.113  -5.461  1.00  0.00    -0.166 F 
ATOM     36  F   UNL     1     -38.678 165.655  -4.431  1.00  0.00    -0.166 F 
ENDBRANCH  30  33
ENDBRANCH  23  26
ENDBRANCH   4  20
TORSDOF 6
ENDMDL
MODEL 7
REMARK VINA RESULT:   -10.272      5.065     12.039
REMARK INTER + INTRA:         -13.877
REMARK INTER:                 -13.795
REMARK INTRA:                  -0.082
REMARK UNBOUND:                -0.001
REMARK SMILES CNC(=O)c1cc(Oc2ccc(NC(=O)Nc3ccc(Cl)c(C(F)(F)F)c3)c(F)c2)ccn1
REMARK SMILES IDX 9 1 10 2 11 3 12 4 28 5 29 6 30 7 8 8 7 9 5 10 6 11 33 12
REMARK SMILES IDX 32 13 31 14 3 15 2 16 4 17 1 18 13 20 14 21 15 22 16 23
REMARK SMILES IDX 17 26 18 27 27 28 19 29 22 30 20 31 21 32 23 33 24 34 25 35
REMARK SMILES IDX 26 36
REMARK H PARENT 2 19 13 24 16 25
ROOT
ATOM      1  C   UNL     1     -35.493 153.570   6.657  1.00  0.00    +0.130 A 
ATOM      2  C   UNL     1     -35.601 154.909   7.048  1.00  0.00    +0.049 A 
ATOM      3  C   UNL     1     -36.488 155.768   6.387  1.00  0.00    +0.033 A 
ATOM      4  C   UNL     1     -37.280 155.290   5.343  1.00  0.00    +0.079 A 
ATOM      5  C   UNL     1     -37.178 153.936   4.991  1.00  0.00    +0.150 A 
ATOM      6  F   UNL     1     -37.948 153.455   4.001  1.00  0.00    -0.205 F 
ATOM      7  C   UNL     1     -36.300 153.074   5.639  1.00  0.00    +0.088 A 
ENDROOT
BRANCH   1   8
ATOM      8  O   UNL     1     -34.664 152.674   7.290  1.00  0.00    -0.457 OA
BRANCH   8   9
ATOM      9  C   UNL     1     -35.029 151.347   7.269  1.00  0.00    +0.131 A 
ATOM     10  C   UNL     1     -35.117 149.301   6.072  1.00  0.00    +0.131 A 
ATOM     11  C   UNL     1     -34.787 150.646   6.094  1.00  0.00    +0.081 A 
ATOM     12  N   UNL     1     -35.648 148.628   7.134  1.00  0.00    -0.251 NA
ATOM     13  C   UNL     1     -35.844 149.342   8.262  1.00  0.00    +0.116 A 
ATOM     14  C   UNL     1     -35.548 150.689   8.381  1.00  0.00    +0.067 A 
BRANCH  10  15
ATOM     15  C   UNL     1     -34.887 148.499   4.827  1.00  0.00    +0.269 C 
ATOM     16  N   UNL     1     -34.793 149.253   3.676  1.00  0.00    -0.354 N 
ATOM     17  O   UNL     1     -34.802 147.276   4.859  1.00  0.00    -0.268 OA
ATOM     18  C   UNL     1     -34.699 148.660   2.371  1.00  0.00    +0.143 C 
ATOM     19  H   UNL     1     -34.982 150.246   3.780  1.00  0.00    +0.163 HD
ENDBRANCH  10  15
ENDBRANCH   8   9
ENDBRANCH   1   8
BRANCH   4  20
ATOM     20  N   UNL     1     -38.208 156.072   4.621  1.00  0.00    -0.305 N 
ATOM     21  C   UNL     1     -37.947 156.938   3.572  1.00  0.00    +0.323 C 
ATOM     22  O   UNL     1     -36.849 157.093   3.055  1.00  0.00    -0.248 OA
ATOM     23  N   UNL     1     -39.106 157.602   3.196  1.00  0.00    -0.308 N 
ATOM     24  H   UNL     1     -39.178 155.851   4.806  1.00  0.00    +0.171 HD
ATOM     25  H   UNL     1     -39.879 157.530   3.841  1.00  0.00    +0.171 HD
BRANCH  23  26
ATOM     26  C   UNL     1     -39.272 158.495   2.118  1.00  0.00    +0.043 A 
ATOM     27  C   UNL     1     -38.238 158.913   1.283  1.00  0.00    +0.028 A 
ATOM     28  C   UNL     1     -40.568 158.970   1.873  1.00  0.00    +0.040 A 
ATOM     29  C   UNL     1     -38.493 159.795   0.229  1.00  0.00    +0.023 A 
ATOM     30  C   UNL     1     -40.842 159.861   0.813  1.00  0.00    +0.076 A 
ATOM     31  C   UNL     1     -39.785 160.269  -0.005  1.00  0.00    +0.053 A 
ATOM     32 Cl   UNL     1     -40.013 161.354  -1.327  1.00  0.00    -0.084 Cl
BRANCH  30  33
ATOM     33  C   UNL     1     -42.247 160.348   0.586  1.00  0.00    +0.417 C 
ATOM     34  F   UNL     1     -42.775 159.926  -0.594  1.00  0.00    -0.166 F 
ATOM     35  F   UNL     1     -42.352 161.706   0.597  1.00  0.00    -0.166 F 
ATOM     36  F   UNL     1     -43.117 159.914   1.545  1.00  0.00    -0.166 F 
ENDBRANCH  30  33
ENDBRANCH  23  26
ENDBRANCH   4  20
TORSDOF 6
ENDMDL
MODEL 8
REMARK VINA RESULT:   -10.262      4.876     11.603
REMARK INTER + INTRA:         -13.863
REMARK INTER:                 -12.783
REMARK INTRA:                  -1.080
REMARK UNBOUND:                -0.001
REMARK SMILES CNC(=O)c1cc(Oc2ccc(NC(=O)Nc3ccc(Cl)c(C(F)(F)F)c3)c(F)c2)ccn1
REMARK SMILES IDX 9 1 10 2 11 3 12 4 28 5 29 6 30 7 8 8 7 9 5 10 6 11 33 12
REMARK SMILES IDX 32 13 31 14 3 15 2 16 4 17 1 18 13 20 14 21 15 22 16 23
REMARK SMILES IDX 17 26 18 27 27 28 19 29 22 30 20 31 21 32 23 33 24 34 25 35
REMARK SMILES IDX 26 36
REMARK H PARENT 2 19 13 24 16 25
ROOT
ATOM      1  C   UNL     1     -34.701 153.902   6.063  1.00  0.00    +0.130 A 
ATOM      2  C   UNL     1     -34.071 154.825   5.224  1.00  0.00    +0.049 A 
ATOM      3  C   UNL     1     -34.779 155.928   4.730  1.00  0.00    +0.033 A 
ATOM      4  C   UNL     1     -36.115 156.120   5.085  1.00  0.00    +0.079 A 
ATOM      5  C   UNL     1     -36.715 155.198   5.955  1.00  0.00    +0.150 A 
ATOM      6  F   UNL     1     -37.995 155.378   6.322  1.00  0.00    -0.205 F 
ATOM      7  C   UNL     1     -36.022 154.098   6.450  1.00  0.00    +0.088 A 
ENDROOT
BRANCH   1   8
ATOM      8  O   UNL     1     -34.047 152.819   6.603  1.00  0.00    -0.457 OA
BRANCH   8   9
ATOM      9  C   UNL     1     -34.708 151.612   6.602  1.00  0.00    +0.131 A 
ATOM     10  C   UNL     1     -35.445 149.721   5.376  1.00  0.00    +0.131 A 
ATOM     11  C   UNL     1     -34.814 150.953   5.384  1.00  0.00    +0.081 A 
ATOM     12  N   UNL     1     -35.953 149.115   6.489  1.00  0.00    -0.251 NA
ATOM     13  C   UNL     1     -35.807 149.780   7.654  1.00  0.00    +0.116 A 
ATOM     14  C   UNL     1     -35.192 151.016   7.764  1.00  0.00    +0.067 A 
BRANCH  10  15
ATOM     15  C   UNL     1     -35.597 148.970   4.087  1.00  0.00    +0.269 C 
ATOM     16  N   UNL     1     -34.551 149.144   3.204  1.00  0.00    -0.354 N 
ATOM     17  O   UNL     1     -36.581 148.276   3.860  1.00  0.00    -0.268 OA
ATOM     18  C   UNL     1     -34.571 148.612   1.870  1.00  0.00    +0.143 C 
ATOM     19  H   UNL     1     -33.848 149.826   3.477  1.00  0.00    +0.163 HD
ENDBRANCH  10  15
ENDBRANCH   8   9
ENDBRANCH   1   8
BRANCH   4  20
ATOM     20  N   UNL     1     -36.911 157.201   4.649  1.00  0.00    -0.305 N 
ATOM     21  C   UNL     1     -37.799 157.221   3.586  1.00  0.00    +0.323 C 
ATOM     22  O   UNL     1     -38.086 156.248   2.901  1.00  0.00    -0.248 OA
ATOM     23  N   UNL     1     -38.311 158.498   3.410  1.00  0.00    -0.308 N 
ATOM     24  H   UNL     1     -36.931 157.991   5.281  1.00  0.00    +0.171 HD
ATOM     25  H   UNL     1     -37.831 159.233   3.907  1.00  0.00    +0.171 HD
BRANCH  23  26
ATOM     26  C   UNL     1     -39.304 158.906   2.495  1.00  0.00    +0.043 A 
ATOM     27  C   UNL     1     -40.669 158.694   2.676  1.00  0.00    +0.028 A 
ATOM     28  C   UNL     1     -38.876 159.584   1.345  1.00  0.00    +0.040 A 
ATOM     29  C   UNL     1     -41.587 159.140   1.722  1.00  0.00    +0.023 A 
ATOM     30  C   UNL     1     -39.790 160.041   0.372  1.00  0.00    +0.076 A 
ATOM     31  C   UNL     1     -41.152 159.808   0.576  1.00  0.00    +0.053 A 
ATOM     32 Cl   UNL     1     -42.352 160.327  -0.551  1.00  0.00    -0.084 Cl
BRANCH  30  33
ATOM     33  C   UNL     1     -39.288 160.762  -0.849  1.00  0.00    +0.417 C 
ATOM     34  F   UNL     1     -39.662 162.069  -0.890  1.00  0.00    -0.166 F 
ATOM     35  F   UNL     1     -39.711 160.199  -2.015  1.00  0.00    -0.166 F 
ATOM     36  F   UNL     1     -37.925 160.776  -0.932  1.00  0.00    -0.166 F 
ENDBRANCH  30  33
ENDBRANCH  23  26
ENDBRANCH   4  20
TORSDOF 6
ENDMDL
MODEL 9
REMARK VINA RESULT:    -9.991      4.948      8.688
REMARK INTER + INTRA:         -13.497
REMARK INTER:                 -12.781
REMARK INTRA:                  -0.716
REMARK UNBOUND:                -0.001
REMARK SMILES CNC(=O)c1cc(Oc2ccc(NC(=O)Nc3ccc(Cl)c(C(F)(F)F)c3)c(F)c2)ccn1
REMARK SMILES IDX 9 1 10 2 11 3 12 4 28 5 29 6 30 7 8 8 7 9 5 10 6 11 33 12
REMARK SMILES IDX 32 13 31 14 3 15 2 16 4 17 1 18 13 20 14 21 15 22 16 23
REMARK SMILES IDX 17 26 18 27 27 28 19 29 22 30 20 31 21 32 23 33 24 34 25 35
REMARK SMILES IDX 26 36
REMARK H PARENT 2 19 13 24 16 25
ROOT
ATOM      1  C   UNL     1     -37.991 163.348  -8.449  1.00  0.00    +0.130 A 
ATOM      2  C   UNL     1     -37.809 161.978  -8.235  1.00  0.00    +0.049 A 
ATOM      3  C   UNL     1     -37.784 161.464  -6.932  1.00  0.00    +0.033 A 
ATOM      4  C   UNL     1     -37.955 162.315  -5.839  1.00  0.00    +0.079 A 
ATOM      5  C   UNL     1     -38.169 163.680  -6.081  1.00  0.00    +0.150 A 
ATOM      6  F   UNL     1     -38.355 164.510  -5.041  1.00  0.00    -0.205 F 
ATOM      7  C   UNL     1     -38.194 164.202  -7.370  1.00  0.00    +0.088 A 
ENDROOT
BRANCH   1   8
ATOM      8  O   UNL     1     -38.056 163.903  -9.705  1.00  0.00    -0.457 OA
BRANCH   8   9
ATOM      9  C   UNL     1     -36.876 164.323 -10.276  1.00  0.00    +0.131 A 
ATOM     10  C   UNL     1     -35.513 166.128 -10.989  1.00  0.00    +0.131 A 
ATOM     11  C   UNL     1     -36.711 165.691 -10.448  1.00  0.00    +0.081 A 
ATOM     12  N   UNL     1     -34.489 165.300 -11.345  1.00  0.00    -0.251 NA
ATOM     13  C   UNL     1     -34.682 163.980 -11.138  1.00  0.00    +0.116 A 
ATOM     14  C   UNL     1     -35.844 163.447 -10.606  1.00  0.00    +0.067 A 
BRANCH  10  15
ATOM     15  C   UNL     1     -35.286 167.594 -11.206  1.00  0.00    +0.269 C 
ATOM     16  N   UNL     1     -33.961 167.946 -11.355  1.00  0.00    -0.354 N 
ATOM     17  O   UNL     1     -36.218 168.390 -11.236  1.00  0.00    -0.268 OA
ATOM     18  C   UNL     1     -33.531 169.314 -11.445  1.00  0.00    +0.143 C 
ATOM     19  H   UNL     1     -33.284 167.201 -11.208  1.00  0.00    +0.163 HD
ENDBRANCH  10  15
ENDBRANCH   8   9
ENDBRANCH   1   8
BRANCH   4  20
ATOM     20  N   UNL     1     -37.955 161.896  -4.491  1.00  0.00    -0.305 N 
ATOM     21  C   UNL     1     -39.045 161.520  -3.724  1.00  0.00    +0.323 C 
ATOM     22  O   UNL     1     -40.191 161.421  -4.144  1.00  0.00    -0.248 OA
ATOM     23  N   UNL     1     -38.653 161.276  -2.416  1.00  0.00    -0.308 N 
ATOM     24  H   UNL     1     -37.037 161.715  -4.106  1.00  0.00    +0.171 HD
ATOM     25  H   UNL     1     -37.729 161.598  -2.170  1.00  0.00    +0.171 HD
BRANCH  23  26
ATOM     26  C   UNL     1     -39.448 160.792  -1.357  1.00  0.00    +0.043 A 
ATOM     27  C   UNL     1     -40.817 161.026  -1.237  1.00  0.00    +0.028 A 
ATOM     28  C   UNL     1     -38.812 160.011  -0.382  1.00  0.00    +0.040 A 
ATOM     29  C   UNL     1     -41.532 160.500  -0.158  1.00  0.00    +0.023 A 
ATOM     30  C   UNL     1     -39.520 159.472   0.713  1.00  0.00    +0.076 A 
ATOM     31  C   UNL     1     -40.890 159.728   0.813  1.00  0.00    +0.053 A 
ATOM     32 Cl   UNL     1     -41.847 159.116   2.111  1.00  0.00    -0.084 Cl
BRANCH  30  33
ATOM     33  C   UNL     1     -38.798 158.641   1.738  1.00  0.00    +0.417 C 
ATOM     34  F   UNL     1     -37.454 158.591   1.535  1.00  0.00    -0.166 F 
ATOM     35  F   UNL     1     -39.233 157.352   1.787  1.00  0.00    -0.166 F 
ATOM     36  F   UNL     1     -38.952 159.119   3.008  1.00  0.00    -0.166 F 
ENDBRANCH  30  33
ENDBRANCH  23  26
ENDBRANCH   4  20
TORSDOF 6
ENDMDL
MODEL 10
REMARK VINA RESULT:    -9.861      4.673      7.942
REMARK INTER + INTRA:         -13.321
REMARK INTER:                 -13.173
REMARK INTRA:                  -0.148
REMARK UNBOUND:                -0.001
REMARK SMILES CNC(=O)c1cc(Oc2ccc(NC(=O)Nc3ccc(Cl)c(C(F)(F)F)c3)c(F)c2)ccn1
REMARK SMILES IDX 9 1 10 2 11 3 12 4 28 5 29 6 30 7 8 8 7 9 5 10 6 11 33 12
REMARK SMILES IDX 32 13 31 14 3 15 2 16 4 17 1 18 13 20 14 21 15 22 16 23
REMARK SMILES IDX 17 26 18 27 27 28 19 29 22 30 20 31 21 32 23 33 24 34 25 35
REMARK SMILES IDX 26 36
REMARK H PARENT 2 19 13 24 16 25
ROOT
ATOM      1  C   UNL     1     -37.114 162.707  -6.746  1.00  0.00    +0.130 A 
ATOM      2  C   UNL     1     -36.990 163.702  -5.770  1.00  0.00    +0.049 A 
ATOM      3  C   UNL     1     -37.775 163.656  -4.611  1.00  0.00    +0.033 A 
ATOM      4  C   UNL     1     -38.677 162.610  -4.417  1.00  0.00    +0.079 A 
ATOM      5  C   UNL     1     -38.760 161.607  -5.393  1.00  0.00    +0.150 A 
ATOM      6  F   UNL     1     -39.609 160.581  -5.212  1.00  0.00    -0.205 F 
ATOM      7  C   UNL     1     -37.987 161.642  -6.549  1.00  0.00    +0.088 A 
ENDROOT
BRANCH   1   8
ATOM      8  O   UNL     1     -36.347 162.683  -7.887  1.00  0.00    -0.457 OA
BRANCH   8   9
ATOM      9  C   UNL     1     -36.986 162.417  -9.077  1.00  0.00    +0.131 A 
ATOM     10  C   UNL     1     -37.354 160.913 -10.873  1.00  0.00    +0.131 A 
ATOM     11  C   UNL     1     -36.691 161.209  -9.694  1.00  0.00    +0.081 A 
ATOM     12  N   UNL     1     -38.285 161.728 -11.450  1.00  0.00    -0.251 NA
ATOM     13  C   UNL     1     -38.558 162.881 -10.804  1.00  0.00    +0.116 A 
ATOM     14  C   UNL     1     -37.947 163.265  -9.622  1.00  0.00    +0.067 A 
BRANCH  10  15
ATOM     15  C   UNL     1     -37.066 159.627 -11.587  1.00  0.00    +0.269 C 
ATOM     16  N   UNL     1     -38.114 158.731 -11.585  1.00  0.00    -0.354 N 
ATOM     17  O   UNL     1     -35.978 159.414 -12.111  1.00  0.00    -0.268 OA
ATOM     18  C   UNL     1     -37.991 157.397 -12.106  1.00  0.00    +0.143 C 
ATOM     19  H   UNL     1     -38.923 158.994 -11.027  1.00  0.00    +0.163 HD
ENDBRANCH  10  15
ENDBRANCH   8   9
ENDBRANCH   1   8
BRANCH   4  20
ATOM     20  N   UNL     1     -39.506 162.469  -3.282  1.00  0.00    -0.305 N 
ATOM     21  C   UNL     1     -39.544 161.408  -2.392  1.00  0.00    +0.323 C 
ATOM     22  O   UNL     1     -38.786 160.448  -2.421  1.00  0.00    -0.248 OA
ATOM     23  N   UNL     1     -40.564 161.591  -1.469  1.00  0.00    -0.308 N 
ATOM     24  H   UNL     1     -40.012 163.305  -3.024  1.00  0.00    +0.171 HD
ATOM     25  H   UNL     1     -41.232 162.313  -1.694  1.00  0.00    +0.171 HD
BRANCH  23  26
ATOM     26  C   UNL     1     -40.870 160.781  -0.356  1.00  0.00    +0.043 A 
ATOM     27  C   UNL     1     -42.154 160.609   0.157  1.00  0.00    +0.028 A 
ATOM     28  C   UNL     1     -39.807 160.097   0.250  1.00  0.00    +0.040 A 
ATOM     29  C   UNL     1     -42.370 159.779   1.261  1.00  0.00    +0.023 A 
ATOM     30  C   UNL     1     -40.008 159.255   1.365  1.00  0.00    +0.076 A 
ATOM     31  C   UNL     1     -41.304 159.106   1.863  1.00  0.00    +0.053 A 
ATOM     32 Cl   UNL     1     -41.658 158.100   3.219  1.00  0.00    -0.084 Cl
BRANCH  30  33
ATOM     33  C   UNL     1     -38.839 158.541   1.987  1.00  0.00    +0.417 C 
ATOM     34  F   UNL     1     -38.998 157.191   2.030  1.00  0.00    -0.166 F 
ATOM     35  F   UNL     1     -38.582 158.944   3.262  1.00  0.00    -0.166 F 
ATOM     36  F   UNL     1     -37.673 158.744   1.305  1.00  0.00    -0.166 F 
ENDBRANCH  30  33
ENDBRANCH  23  26
ENDBRANCH   4  20
TORSDOF 6
ENDMDL
