MODEL 1
REMARK VINA RESULT:    -8.778      0.000      0.000
REMARK INTER + INTRA:         -12.339
REMARK INTER:                 -11.344
REMARK INTRA:                  -0.995
REMARK UNBOUND:                -0.995
REMARK SMILES CNC(=O)c1ccccc1Sc1ccc2c(/C=C/c3ccccn3)n[nH]c2c1
REMARK SMILES IDX 11 1 10 2 5 3 6 4 7 5 9 6 8 7 3 8 2 9 4 10 1 11 12 13 13 14
REMARK SMILES IDX 28 15 14 16 27 17 15 18 26 19 16 20 25 21 17 23 18 24 19 25
REMARK SMILES IDX 20 26 24 27 21 28 23 29 22 30
REMARK H PARENT 2 12 26 22
ROOT
ATOM      1  S   UNL     1     -12.776  -1.053  -9.591  1.00  0.00    -0.089 SA
ENDROOT
BRANCH   1   2
ATOM      2  C   UNL     1     -12.123  -0.224  -8.142  1.00  0.00    +0.025 A 
ATOM      3  C   UNL     1     -12.916   0.409  -7.169  1.00  0.00    +0.053 A 
ATOM      4  C   UNL     1     -12.313   0.972  -6.030  1.00  0.00    +0.015 A 
ATOM      5  C   UNL     1     -10.928   0.939  -5.872  1.00  0.00    +0.001 A 
ATOM      6  C   UNL     1     -10.728  -0.241  -7.971  1.00  0.00    +0.016 A 
ATOM      7  C   UNL     1     -10.137   0.338  -6.845  1.00  0.00    +0.001 A 
BRANCH   3   8
ATOM      8  C   UNL     1     -14.396   0.505  -7.235  1.00  0.00    +0.252 C 
ATOM      9  N   UNL     1     -15.102  -0.545  -6.691  1.00  0.00    -0.355 N 
ATOM     10  O   UNL     1     -14.919   1.471  -7.778  1.00  0.00    -0.269 OA
ATOM     11  C   UNL     1     -16.538  -0.513  -6.603  1.00  0.00    +0.143 C 
ATOM     12  H   UNL     1     -14.600  -1.221  -6.127  1.00  0.00    +0.163 HD
ENDBRANCH   3   8
ENDBRANCH   1   2
BRANCH   1  13
ATOM     13  C   UNL     1     -12.561   0.234 -10.815  1.00  0.00    +0.014 A 
ATOM     14  C   UNL     1     -11.338   0.340 -11.486  1.00  0.00    +0.016 A 
ATOM     15  C   UNL     1     -13.601   1.137 -11.085  1.00  0.00    +0.043 A 
ATOM     16  C   UNL     1     -11.127   1.335 -12.453  1.00  0.00    +0.014 A 
ATOM     17  C   UNL     1     -13.368   2.115 -12.058  1.00  0.00    +0.067 A 
ATOM     18  C   UNL     1     -12.167   2.239 -12.746  1.00  0.00    +0.027 A 
ATOM     19  N   UNL     1     -14.167   3.109 -12.549  1.00  0.00    -0.277 N 
ATOM     20  C   UNL     1     -12.359   3.348 -13.625  1.00  0.00    +0.093 A 
ATOM     21  N   UNL     1     -13.588   3.871 -13.491  1.00  0.00    -0.175 NA
ATOM     22  H   UNL     1     -15.123   3.318 -12.284  1.00  0.00    +0.190 HD
BRANCH  20  23
ATOM     23  C   UNL     1     -11.370   3.848 -14.536  1.00  0.00    +0.033 C 
ATOM     24  C   UNL     1     -11.538   4.910 -15.343  1.00  0.00    +0.030 C 
BRANCH  24  25
ATOM     25  C   UNL     1     -10.517   5.410 -16.270  1.00  0.00    +0.063 A 
ATOM     26  C   UNL     1     -10.436   6.772 -16.546  1.00  0.00    +0.028 A 
ATOM     27  N   UNL     1      -9.679   4.503 -16.830  1.00  0.00    -0.257 NA
ATOM     28  C   UNL     1      -9.457   7.222 -17.430  1.00  0.00    +0.004 A 
ATOM     29  C   UNL     1      -8.742   4.969 -17.684  1.00  0.00    +0.111 A 
ATOM     30  C   UNL     1      -8.592   6.306 -18.012  1.00  0.00    +0.020 A 
ENDBRANCH  24  25
ENDBRANCH  20  23
ENDBRANCH   1  13
TORSDOF 5
ENDMDL
MODEL 2
REMARK VINA RESULT:    -8.603      2.272      3.256
REMARK INTER + INTRA:         -12.113
REMARK INTER:                 -11.126
REMARK INTRA:                  -0.987
REMARK UNBOUND:                -0.995
REMARK SMILES CNC(=O)c1ccccc1Sc1ccc2c(/C=C/c3ccccn3)n[nH]c2c1
REMARK SMILES IDX 11 1 10 2 5 3 6 4 7 5 9 6 8 7 3 8 2 9 4 10 1 11 12 13 13 14
REMARK SMILES IDX 28 15 14 16 27 17 15 18 26 19 16 20 25 21 17 23 18 24 19 25
REMARK SMILES IDX 20 26 24 27 21 28 23 29 22 30
REMARK H PARENT 2 12 26 22
ROOT
ATOM      1  S   UNL     1     -13.714  -0.340  -8.897  1.00  0.00    -0.089 SA
ENDROOT
BRANCH   1   2
ATOM      2  C   UNL     1     -12.906  -1.903  -9.239  1.00  0.00    +0.025 A 
ATOM      3  C   UNL     1     -11.753  -2.360  -8.576  1.00  0.00    +0.053 A 
ATOM      4  C   UNL     1     -11.233  -3.633  -8.868  1.00  0.00    +0.015 A 
ATOM      5  C   UNL     1     -11.832  -4.438  -9.836  1.00  0.00    +0.001 A 
ATOM      6  C   UNL     1     -13.491  -2.724 -10.219  1.00  0.00    +0.016 A 
ATOM      7  C   UNL     1     -12.957  -3.980 -10.515  1.00  0.00    +0.001 A 
BRANCH   3   8
ATOM      8  C   UNL     1     -11.034  -1.588  -7.532  1.00  0.00    +0.252 C 
ATOM      9  N   UNL     1      -9.968  -0.827  -7.959  1.00  0.00    -0.355 N 
ATOM     10  O   UNL     1     -11.385  -1.675  -6.361  1.00  0.00    -0.269 OA
ATOM     11  C   UNL     1      -9.263   0.044  -7.055  1.00  0.00    +0.143 C 
ATOM     12  H   UNL     1      -9.844  -0.688  -8.955  1.00  0.00    +0.163 HD
ENDBRANCH   3   8
ENDBRANCH   1   2
BRANCH   1  13
ATOM     13  C   UNL     1     -13.172   0.613 -10.311  1.00  0.00    +0.014 A 
ATOM     14  C   UNL     1     -11.859   0.465 -10.770  1.00  0.00    +0.016 A 
ATOM     15  C   UNL     1     -14.049   1.510 -10.939  1.00  0.00    +0.043 A 
ATOM     16  C   UNL     1     -11.393   1.192 -11.876  1.00  0.00    +0.014 A 
ATOM     17  C   UNL     1     -13.562   2.218 -12.044  1.00  0.00    +0.067 A 
ATOM     18  C   UNL     1     -12.266   2.085 -12.528  1.00  0.00    +0.027 A 
ATOM     19  N   UNL     1     -14.160   3.134 -12.864  1.00  0.00    -0.277 N 
ATOM     20  C   UNL     1     -12.196   2.977 -13.641  1.00  0.00    +0.093 A 
ATOM     21  N   UNL     1     -13.363   3.612 -13.833  1.00  0.00    -0.175 NA
ATOM     22  H   UNL     1     -15.113   3.473 -12.816  1.00  0.00    +0.190 HD
BRANCH  20  23
ATOM     23  C   UNL     1     -11.032   3.175 -14.455  1.00  0.00    +0.033 C 
ATOM     24  C   UNL     1     -10.834   4.229 -15.266  1.00  0.00    +0.030 C 
BRANCH  24  25
ATOM     25  C   UNL     1      -9.637   4.418 -16.094  1.00  0.00    +0.063 A 
ATOM     26  C   UNL     1      -9.501   5.568 -16.867  1.00  0.00    +0.028 A 
ATOM     27  N   UNL     1      -8.696   3.443 -16.069  1.00  0.00    -0.257 NA
ATOM     28  C   UNL     1      -8.356   5.725 -17.644  1.00  0.00    +0.004 A 
ATOM     29  C   UNL     1      -7.596   3.623 -16.833  1.00  0.00    +0.111 A 
ATOM     30  C   UNL     1      -7.382   4.734 -17.630  1.00  0.00    +0.020 A 
ENDBRANCH  24  25
ENDBRANCH  20  23
ENDBRANCH   1  13
TORSDOF 5
ENDMDL
MODEL 3
REMARK VINA RESULT:    -8.601      2.394      2.955
REMARK INTER + INTRA:         -12.111
REMARK INTER:                 -11.303
REMARK INTRA:                  -0.808
REMARK UNBOUND:                -0.995
REMARK SMILES CNC(=O)c1ccccc1Sc1ccc2c(/C=C/c3ccccn3)n[nH]c2c1
REMARK SMILES IDX 11 1 10 2 5 3 6 4 7 5 9 6 8 7 3 8 2 9 4 10 1 11 12 13 13 14
REMARK SMILES IDX 28 15 14 16 27 17 15 18 26 19 16 20 25 21 17 23 18 24 19 25
REMARK SMILES IDX 20 26 24 27 21 28 23 29 22 30
REMARK H PARENT 2 12 26 22
ROOT
ATOM      1  S   UNL     1     -13.120  -0.600  -9.445  1.00  0.00    -0.089 SA
ENDROOT
BRANCH   1   2
ATOM      2  C   UNL     1     -11.459  -1.164  -9.078  1.00  0.00    +0.025 A 
ATOM      3  C   UNL     1     -10.840  -2.262  -9.701  1.00  0.00    +0.053 A 
ATOM      4  C   UNL     1      -9.506  -2.584  -9.395  1.00  0.00    +0.015 A 
ATOM      5  C   UNL     1      -8.798  -1.843  -8.449  1.00  0.00    +0.001 A 
ATOM      6  C   UNL     1     -10.733  -0.434  -8.121  1.00  0.00    +0.016 A 
ATOM      7  C   UNL     1      -9.414  -0.773  -7.808  1.00  0.00    +0.001 A 
BRANCH   3   8
ATOM      8  C   UNL     1     -11.497  -3.120 -10.719  1.00  0.00    +0.252 C 
ATOM      9  N   UNL     1     -12.410  -4.038 -10.248  1.00  0.00    -0.355 N 
ATOM     10  O   UNL     1     -11.194  -3.004 -11.901  1.00  0.00    -0.269 OA
ATOM     11  C   UNL     1     -13.186  -4.849 -11.149  1.00  0.00    +0.143 C 
ATOM     12  H   UNL     1     -12.716  -3.961  -9.285  1.00  0.00    +0.163 HD
ENDBRANCH   3   8
ENDBRANCH   1   2
BRANCH   1  13
ATOM     13  C   UNL     1     -12.775   0.563 -10.760  1.00  0.00    +0.014 A 
ATOM     14  C   UNL     1     -11.514   0.555 -11.365  1.00  0.00    +0.016 A 
ATOM     15  C   UNL     1     -13.753   1.485 -11.165  1.00  0.00    +0.043 A 
ATOM     16  C   UNL     1     -11.202   1.450 -12.399  1.00  0.00    +0.014 A 
ATOM     17  C   UNL     1     -13.419   2.362 -12.203  1.00  0.00    +0.067 A 
ATOM     18  C   UNL     1     -12.178   2.371 -12.828  1.00  0.00    +0.027 A 
ATOM     19  N   UNL     1     -14.141   3.344 -12.822  1.00  0.00    -0.277 N 
ATOM     20  C   UNL     1     -12.267   3.406 -13.808  1.00  0.00    +0.093 A 
ATOM     21  N   UNL     1     -13.474   3.993 -13.790  1.00  0.00    -0.175 NA
ATOM     22  H   UNL     1     -15.097   3.618 -12.632  1.00  0.00    +0.190 HD
BRANCH  20  23
ATOM     23  C   UNL     1     -11.207   3.779 -14.699  1.00  0.00    +0.033 C 
ATOM     24  C   UNL     1     -11.268   4.791 -15.582  1.00  0.00    +0.030 C 
BRANCH  24  25
ATOM     25  C   UNL     1     -10.175   5.160 -16.489  1.00  0.00    +0.063 A 
ATOM     26  C   UNL     1     -10.015   6.487 -16.880  1.00  0.00    +0.028 A 
ATOM     27  N   UNL     1      -9.351   4.172 -16.915  1.00  0.00    -0.257 NA
ATOM     28  C   UNL     1      -8.969   6.813 -17.740  1.00  0.00    +0.004 A 
ATOM     29  C   UNL     1      -8.347   4.519 -17.750  1.00  0.00    +0.111 A 
ATOM     30  C   UNL     1      -8.117   5.812 -18.187  1.00  0.00    +0.020 A 
ENDBRANCH  24  25
ENDBRANCH  20  23
ENDBRANCH   1  13
TORSDOF 5
ENDMDL
MODEL 4
REMARK VINA RESULT:    -8.503      2.377      2.985
REMARK INTER + INTRA:         -11.984
REMARK INTER:                 -11.114
REMARK INTRA:                  -0.870
REMARK UNBOUND:                -0.995
REMARK SMILES CNC(=O)c1ccccc1Sc1ccc2c(/C=C/c3ccccn3)n[nH]c2c1
REMARK SMILES IDX 11 1 10 2 5 3 6 4 7 5 9 6 8 7 3 8 2 9 4 10 1 11 12 13 13 14
REMARK SMILES IDX 28 15 14 16 27 17 15 18 26 19 16 20 25 21 17 23 18 24 19 25
REMARK SMILES IDX 20 26 24 27 21 28 23 29 22 30
REMARK H PARENT 2 12 26 22
ROOT
ATOM      1  S   UNL     1     -13.450  -0.311  -9.651  1.00  0.00    -0.089 SA
ENDROOT
BRANCH   1   2
ATOM      2  C   UNL     1     -11.860  -0.710  -8.924  1.00  0.00    +0.025 A 
ATOM      3  C   UNL     1     -11.098  -1.843  -9.261  1.00  0.00    +0.053 A 
ATOM      4  C   UNL     1      -9.830  -2.032  -8.685  1.00  0.00    +0.015 A 
ATOM      5  C   UNL     1      -9.332  -1.122  -7.753  1.00  0.00    +0.001 A 
ATOM      6  C   UNL     1     -11.346   0.192  -7.976  1.00  0.00    +0.016 A 
ATOM      7  C   UNL     1     -10.093  -0.014  -7.395  1.00  0.00    +0.001 A 
BRANCH   3   8
ATOM      8  C   UNL     1     -11.529  -2.875 -10.237  1.00  0.00    +0.252 C 
ATOM      9  N   UNL     1     -12.427  -3.813  -9.778  1.00  0.00    -0.355 N 
ATOM     10  O   UNL     1     -11.065  -2.872 -11.371  1.00  0.00    -0.269 OA
ATOM     11  C   UNL     1     -12.996  -4.797 -10.661  1.00  0.00    +0.143 C 
ATOM     12  H   UNL     1     -12.877  -3.652  -8.884  1.00  0.00    +0.163 HD
ENDBRANCH   3   8
ENDBRANCH   1   2
BRANCH   1  13
ATOM     13  C   UNL     1     -12.937   0.844 -10.917  1.00  0.00    +0.014 A 
ATOM     14  C   UNL     1     -11.609   0.828 -11.358  1.00  0.00    +0.016 A 
ATOM     15  C   UNL     1     -13.851   1.767 -11.448  1.00  0.00    +0.043 A 
ATOM     16  C   UNL     1     -11.165   1.717 -12.349  1.00  0.00    +0.014 A 
ATOM     17  C   UNL     1     -13.385   2.637 -12.439  1.00  0.00    +0.067 A 
ATOM     18  C   UNL     1     -12.075   2.638 -12.903  1.00  0.00    +0.027 A 
ATOM     19  N   UNL     1     -14.019   3.617 -13.150  1.00  0.00    -0.277 N 
ATOM     20  C   UNL     1     -12.035   3.669 -13.891  1.00  0.00    +0.093 A 
ATOM     21  N   UNL     1     -13.233   4.259 -14.029  1.00  0.00    -0.175 NA
ATOM     22  H   UNL     1     -14.991   3.896 -13.083  1.00  0.00    +0.190 HD
BRANCH  20  23
ATOM     23  C   UNL     1     -10.870   4.033 -14.642  1.00  0.00    +0.033 C 
ATOM     24  C   UNL     1     -10.154   3.187 -15.405  1.00  0.00    +0.030 C 
BRANCH  24  25
ATOM     25  C   UNL     1      -8.962   3.574 -16.168  1.00  0.00    +0.063 A 
ATOM     26  C   UNL     1      -8.990   4.713 -16.969  1.00  0.00    +0.028 A 
ATOM     27  N   UNL     1      -7.863   2.789 -16.059  1.00  0.00    -0.257 NA
ATOM     28  C   UNL     1      -7.846   5.061 -17.685  1.00  0.00    +0.004 A 
ATOM     29  C   UNL     1      -6.770   3.151 -16.765  1.00  0.00    +0.111 A 
ATOM     30  C   UNL     1      -6.712   4.266 -17.583  1.00  0.00    +0.020 A 
ENDBRANCH  24  25
ENDBRANCH  20  23
ENDBRANCH   1  13
TORSDOF 5
ENDMDL
MODEL 5
REMARK VINA RESULT:    -8.395      2.259      2.864
REMARK INTER + INTRA:         -11.844
REMARK INTER:                 -11.559
REMARK INTRA:                  -0.285
REMARK UNBOUND:                -0.995
REMARK SMILES CNC(=O)c1ccccc1Sc1ccc2c(/C=C/c3ccccn3)n[nH]c2c1
REMARK SMILES IDX 11 1 10 2 5 3 6 4 7 5 9 6 8 7 3 8 2 9 4 10 1 11 12 13 13 14
REMARK SMILES IDX 28 15 14 16 27 17 15 18 26 19 16 20 25 21 17 23 18 24 19 25
REMARK SMILES IDX 20 26 24 27 21 28 23 29 22 30
REMARK H PARENT 2 12 26 22
ROOT
ATOM      1  S   UNL     1     -13.109  -0.256  -8.906  1.00  0.00    -0.089 SA
ENDROOT
BRANCH   1   2
ATOM      2  C   UNL     1     -13.036  -1.900  -9.618  1.00  0.00    +0.025 A 
ATOM      3  C   UNL     1     -13.894  -2.956  -9.260  1.00  0.00    +0.053 A 
ATOM      4  C   UNL     1     -13.804  -4.190  -9.926  1.00  0.00    +0.015 A 
ATOM      5  C   UNL     1     -12.845  -4.391 -10.919  1.00  0.00    +0.001 A 
ATOM      6  C   UNL     1     -12.071  -2.123 -10.615  1.00  0.00    +0.016 A 
ATOM      7  C   UNL     1     -11.976  -3.359 -11.258  1.00  0.00    +0.001 A 
BRANCH   3   8
ATOM      8  C   UNL     1     -14.947  -2.855  -8.218  1.00  0.00    +0.252 C 
ATOM      9  N   UNL     1     -16.135  -2.275  -8.604  1.00  0.00    -0.355 N 
ATOM     10  O   UNL     1     -14.719  -3.254  -7.082  1.00  0.00    -0.269 OA
ATOM     11  C   UNL     1     -17.263  -2.219  -7.712  1.00  0.00    +0.143 C 
ATOM     12  H   UNL     1     -16.295  -2.118  -9.592  1.00  0.00    +0.163 HD
ENDBRANCH   3   8
ENDBRANCH   1   2
BRANCH   1  13
ATOM     13  C   UNL     1     -12.773   0.732 -10.359  1.00  0.00    +0.014 A 
ATOM     14  C   UNL     1     -11.491   0.710 -10.918  1.00  0.00    +0.016 A 
ATOM     15  C   UNL     1     -13.780   1.533 -10.920  1.00  0.00    +0.043 A 
ATOM     16  C   UNL     1     -11.185   1.470 -12.057  1.00  0.00    +0.014 A 
ATOM     17  C   UNL     1     -13.452   2.276 -12.060  1.00  0.00    +0.067 A 
ATOM     18  C   UNL     1     -12.190   2.267 -12.641  1.00  0.00    +0.027 A 
ATOM     19  N   UNL     1     -14.198   3.120 -12.833  1.00  0.00    -0.277 N 
ATOM     20  C   UNL     1     -12.293   3.151 -13.758  1.00  0.00    +0.093 A 
ATOM     21  N   UNL     1     -13.528   3.666 -13.861  1.00  0.00    -0.175 NA
ATOM     22  H   UNL     1     -15.173   3.364 -12.712  1.00  0.00    +0.190 HD
BRANCH  20  23
ATOM     23  C   UNL     1     -11.220   3.455 -14.659  1.00  0.00    +0.033 C 
ATOM     24  C   UNL     1     -11.099   4.604 -15.347  1.00  0.00    +0.030 C 
BRANCH  24  25
ATOM     25  C   UNL     1      -9.994   4.902 -16.266  1.00  0.00    +0.063 A 
ATOM     26  C   UNL     1      -9.881   6.170 -16.829  1.00  0.00    +0.028 A 
ATOM     27  N   UNL     1      -9.114   3.907 -16.533  1.00  0.00    -0.257 NA
ATOM     28  C   UNL     1      -8.824   6.429 -17.699  1.00  0.00    +0.004 A 
ATOM     29  C   UNL     1      -8.099   4.187 -17.380  1.00  0.00    +0.111 A 
ATOM     30  C   UNL     1      -7.913   5.419 -17.983  1.00  0.00    +0.020 A 
ENDBRANCH  24  25
ENDBRANCH  20  23
ENDBRANCH   1  13
TORSDOF 5
ENDMDL
MODEL 6
REMARK VINA RESULT:    -8.263      7.451     11.143
REMARK INTER + INTRA:         -11.673
REMARK INTER:                 -11.169
REMARK INTRA:                  -0.505
REMARK UNBOUND:                -0.995
REMARK SMILES CNC(=O)c1ccccc1Sc1ccc2c(/C=C/c3ccccn3)n[nH]c2c1
REMARK SMILES IDX 11 1 10 2 5 3 6 4 7 5 9 6 8 7 3 8 2 9 4 10 1 11 12 13 13 14
REMARK SMILES IDX 28 15 14 16 27 17 15 18 26 19 16 20 25 21 17 23 18 24 19 25
REMARK SMILES IDX 20 26 24 27 21 28 23 29 22 30
REMARK H PARENT 2 12 26 22
ROOT
ATOM      1  S   UNL     1      -7.429   4.783 -18.002  1.00  0.00    -0.089 SA
ENDROOT
BRANCH   1   2
ATOM      2  C   UNL     1      -8.968   4.959 -17.101  1.00  0.00    +0.025 A 
ATOM      3  C   UNL     1      -9.935   5.945 -17.371  1.00  0.00    +0.053 A 
ATOM      4  C   UNL     1     -11.143   5.958 -16.653  1.00  0.00    +0.015 A 
ATOM      5  C   UNL     1     -11.381   5.021 -15.648  1.00  0.00    +0.001 A 
ATOM      6  C   UNL     1      -9.221   4.028 -16.079  1.00  0.00    +0.016 A 
ATOM      7  C   UNL     1     -10.417   4.061 -15.358  1.00  0.00    +0.001 A 
BRANCH   3   8
ATOM      8  C   UNL     1      -9.788   6.990 -18.415  1.00  0.00    +0.252 C 
ATOM      9  N   UNL     1     -10.123   6.623 -19.699  1.00  0.00    -0.355 N 
ATOM     10  O   UNL     1      -9.361   8.098 -18.110  1.00  0.00    -0.269 OA
ATOM     11  C   UNL     1     -10.122   7.581 -20.774  1.00  0.00    +0.143 C 
ATOM     12  H   UNL     1     -10.613   5.747 -19.837  1.00  0.00    +0.163 HD
ENDBRANCH   3   8
ENDBRANCH   1   2
BRANCH   1  13
ATOM     13  C   UNL     1      -6.866   3.211 -17.361  1.00  0.00    +0.014 A 
ATOM     14  C   UNL     1      -7.102   2.048 -18.102  1.00  0.00    +0.016 A 
ATOM     15  C   UNL     1      -6.211   3.144 -16.121  1.00  0.00    +0.043 A 
ATOM     16  C   UNL     1      -6.677   0.795 -17.636  1.00  0.00    +0.014 A 
ATOM     17  C   UNL     1      -5.792   1.883 -15.682  1.00  0.00    +0.067 A 
ATOM     18  C   UNL     1      -6.004   0.713 -16.401  1.00  0.00    +0.027 A 
ATOM     19  N   UNL     1      -5.128   1.496 -14.552  1.00  0.00    -0.277 N 
ATOM     20  C   UNL     1      -5.429  -0.320 -15.600  1.00  0.00    +0.093 A 
ATOM     21  N   UNL     1      -4.898   0.176 -14.471  1.00  0.00    -0.175 NA
ATOM     22  H   UNL     1      -4.801   2.087 -13.797  1.00  0.00    +0.190 HD
BRANCH  20  23
ATOM     23  C   UNL     1      -5.416  -1.711 -15.949  1.00  0.00    +0.033 C 
ATOM     24  C   UNL     1      -5.210  -2.717 -15.081  1.00  0.00    +0.030 C 
BRANCH  24  25
ATOM     25  C   UNL     1      -5.199  -4.136 -15.453  1.00  0.00    +0.063 A 
ATOM     26  C   UNL     1      -4.043  -4.709 -15.977  1.00  0.00    +0.028 A 
ATOM     27  N   UNL     1      -6.341  -4.843 -15.266  1.00  0.00    -0.257 NA
ATOM     28  C   UNL     1      -4.058  -6.059 -16.322  1.00  0.00    +0.004 A 
ATOM     29  C   UNL     1      -6.325  -6.149 -15.611  1.00  0.00    +0.111 A 
ATOM     30  C   UNL     1      -5.220  -6.796 -16.137  1.00  0.00    +0.020 A 
ENDBRANCH  24  25
ENDBRANCH  20  23
ENDBRANCH   1  13
TORSDOF 5
ENDMDL
MODEL 7
REMARK VINA RESULT:    -8.135      2.447      3.375
REMARK INTER + INTRA:         -11.508
REMARK INTER:                 -10.563
REMARK INTRA:                  -0.945
REMARK UNBOUND:                -0.995
REMARK SMILES CNC(=O)c1ccccc1Sc1ccc2c(/C=C/c3ccccn3)n[nH]c2c1
REMARK SMILES IDX 11 1 10 2 5 3 6 4 7 5 9 6 8 7 3 8 2 9 4 10 1 11 12 13 13 14
REMARK SMILES IDX 28 15 14 16 27 17 15 18 26 19 16 20 25 21 17 23 18 24 19 25
REMARK SMILES IDX 20 26 24 27 21 28 23 29 22 30
REMARK H PARENT 2 12 26 22
ROOT
ATOM      1  S   UNL     1     -14.252   0.107  -9.042  1.00  0.00    -0.089 SA
ENDROOT
BRANCH   1   2
ATOM      2  C   UNL     1     -13.653  -1.581  -8.965  1.00  0.00    +0.025 A 
ATOM      3  C   UNL     1     -12.651  -2.025  -8.085  1.00  0.00    +0.053 A 
ATOM      4  C   UNL     1     -12.298  -3.386  -8.051  1.00  0.00    +0.015 A 
ATOM      5  C   UNL     1     -12.911  -4.298  -8.910  1.00  0.00    +0.001 A 
ATOM      6  C   UNL     1     -14.254  -2.513  -9.829  1.00  0.00    +0.016 A 
ATOM      7  C   UNL     1     -13.884  -3.859  -9.802  1.00  0.00    +0.001 A 
BRANCH   3   8
ATOM      8  C   UNL     1     -11.932  -1.144  -7.130  1.00  0.00    +0.252 C 
ATOM      9  N   UNL     1     -10.699  -0.682  -7.535  1.00  0.00    -0.355 N 
ATOM     10  O   UNL     1     -12.432  -0.891  -6.041  1.00  0.00    -0.269 OA
ATOM     11  C   UNL     1      -9.958   0.263  -6.740  1.00  0.00    +0.143 C 
ATOM     12  H   UNL     1     -10.432  -0.808  -8.504  1.00  0.00    +0.163 HD
ENDBRANCH   3   8
ENDBRANCH   1   2
BRANCH   1  13
ATOM     13  C   UNL     1     -13.287   0.722 -10.417  1.00  0.00    +0.014 A 
ATOM     14  C   UNL     1     -13.813   1.740 -11.218  1.00  0.00    +0.016 A 
ATOM     15  C   UNL     1     -12.025   0.176 -10.698  1.00  0.00    +0.043 A 
ATOM     16  C   UNL     1     -13.089   2.252 -12.306  1.00  0.00    +0.014 A 
ATOM     17  C   UNL     1     -11.321   0.708 -11.784  1.00  0.00    +0.067 A 
ATOM     18  C   UNL     1     -11.814   1.725 -12.591  1.00  0.00    +0.027 A 
ATOM     19  N   UNL     1     -10.088   0.410 -12.293  1.00  0.00    -0.277 N 
ATOM     20  C   UNL     1     -10.792   1.954 -13.561  1.00  0.00    +0.093 A 
ATOM     21  N   UNL     1      -9.742   1.140 -13.366  1.00  0.00    -0.175 NA
ATOM     22  H   UNL     1      -9.432  -0.282 -11.952  1.00  0.00    +0.190 HD
BRANCH  20  23
ATOM     23  C   UNL     1     -10.868   2.926 -14.613  1.00  0.00    +0.033 C 
ATOM     24  C   UNL     1      -9.806   3.448 -15.252  1.00  0.00    +0.030 C 
BRANCH  24  25
ATOM     25  C   UNL     1      -9.900   4.443 -16.327  1.00  0.00    +0.063 A 
ATOM     26  C   UNL     1     -10.858   5.451 -16.260  1.00  0.00    +0.028 A 
ATOM     27  N   UNL     1      -9.030   4.334 -17.361  1.00  0.00    -0.257 NA
ATOM     28  C   UNL     1     -10.927   6.384 -17.292  1.00  0.00    +0.004 A 
ATOM     29  C   UNL     1      -9.122   5.253 -18.347  1.00  0.00    +0.111 A 
ATOM     30  C   UNL     1     -10.043   6.286 -18.359  1.00  0.00    +0.020 A 
ENDBRANCH  24  25
ENDBRANCH  20  23
ENDBRANCH   1  13
TORSDOF 5
ENDMDL
MODEL 8
REMARK VINA RESULT:    -8.046      2.088      2.948
REMARK INTER + INTRA:         -11.393
REMARK INTER:                 -10.388
REMARK INTRA:                  -1.005
REMARK UNBOUND:                -0.995
REMARK SMILES CNC(=O)c1ccccc1Sc1ccc2c(/C=C/c3ccccn3)n[nH]c2c1
REMARK SMILES IDX 11 1 10 2 5 3 6 4 7 5 9 6 8 7 3 8 2 9 4 10 1 11 12 13 13 14
REMARK SMILES IDX 28 15 14 16 27 17 15 18 26 19 16 20 25 21 17 23 18 24 19 25
REMARK SMILES IDX 20 26 24 27 21 28 23 29 22 30
REMARK H PARENT 2 12 26 22
ROOT
ATOM      1  S   UNL     1     -12.730  -1.263  -9.175  1.00  0.00    -0.089 SA
ENDROOT
BRANCH   1   2
ATOM      2  C   UNL     1     -11.745  -0.523  -7.873  1.00  0.00    +0.025 A 
ATOM      3  C   UNL     1     -10.400  -0.846  -7.618  1.00  0.00    +0.053 A 
ATOM      4  C   UNL     1      -9.691  -0.159  -6.617  1.00  0.00    +0.015 A 
ATOM      5  C   UNL     1     -10.319   0.820  -5.849  1.00  0.00    +0.001 A 
ATOM      6  C   UNL     1     -12.364   0.460  -7.083  1.00  0.00    +0.016 A 
ATOM      7  C   UNL     1     -11.657   1.124  -6.078  1.00  0.00    +0.001 A 
BRANCH   3   8
ATOM      8  C   UNL     1      -9.633  -1.870  -8.371  1.00  0.00    +0.252 C 
ATOM      9  N   UNL     1      -8.728  -1.399  -9.296  1.00  0.00    -0.355 N 
ATOM     10  O   UNL     1      -9.845  -3.060  -8.168  1.00  0.00    -0.269 OA
ATOM     11  C   UNL     1      -7.854  -2.293 -10.009  1.00  0.00    +0.143 C 
ATOM     12  H   UNL     1      -8.503  -0.411  -9.289  1.00  0.00    +0.163 HD
ENDBRANCH   3   8
ENDBRANCH   1   2
BRANCH   1  13
ATOM     13  C   UNL     1     -12.544  -0.026 -10.454  1.00  0.00    +0.014 A 
ATOM     14  C   UNL     1     -11.349   0.033 -11.178  1.00  0.00    +0.016 A 
ATOM     15  C   UNL     1     -13.579   0.886 -10.714  1.00  0.00    +0.043 A 
ATOM     16  C   UNL     1     -11.162   0.987 -12.189  1.00  0.00    +0.014 A 
ATOM     17  C   UNL     1     -13.370   1.823 -11.732  1.00  0.00    +0.067 A 
ATOM     18  C   UNL     1     -12.198   1.899 -12.473  1.00  0.00    +0.027 A 
ATOM     19  N   UNL     1     -14.173   2.813 -12.226  1.00  0.00    -0.277 N 
ATOM     20  C   UNL     1     -12.407   2.980 -13.384  1.00  0.00    +0.093 A 
ATOM     21  N   UNL     1     -13.621   3.529 -13.218  1.00  0.00    -0.175 NA
ATOM     22  H   UNL     1     -15.112   3.049 -11.929  1.00  0.00    +0.190 HD
BRANCH  20  23
ATOM     23  C   UNL     1     -11.449   3.427 -14.352  1.00  0.00    +0.033 C 
ATOM     24  C   UNL     1     -11.474   4.628 -14.957  1.00  0.00    +0.030 C 
BRANCH  24  25
ATOM     25  C   UNL     1     -10.486   5.072 -15.947  1.00  0.00    +0.063 A 
ATOM     26  C   UNL     1     -10.608   6.328 -16.535  1.00  0.00    +0.028 A 
ATOM     27  N   UNL     1      -9.477   4.221 -16.253  1.00  0.00    -0.257 NA
ATOM     28  C   UNL     1      -9.658   6.728 -17.472  1.00  0.00    +0.004 A 
ATOM     29  C   UNL     1      -8.571   4.635 -17.166  1.00  0.00    +0.111 A 
ATOM     30  C   UNL     1      -8.618   5.866 -17.797  1.00  0.00    +0.020 A 
ENDBRANCH  24  25
ENDBRANCH  20  23
ENDBRANCH   1  13
TORSDOF 5
ENDMDL
MODEL 9
REMARK VINA RESULT:    -7.927      6.657      8.251
REMARK INTER + INTRA:         -11.240
REMARK INTER:                 -10.341
REMARK INTRA:                  -0.898
REMARK UNBOUND:                -0.995
REMARK SMILES CNC(=O)c1ccccc1Sc1ccc2c(/C=C/c3ccccn3)n[nH]c2c1
REMARK SMILES IDX 11 1 10 2 5 3 6 4 7 5 9 6 8 7 3 8 2 9 4 10 1 11 12 13 13 14
REMARK SMILES IDX 28 15 14 16 27 17 15 18 26 19 16 20 25 21 17 23 18 24 19 25
REMARK SMILES IDX 20 26 24 27 21 28 23 29 22 30
REMARK H PARENT 2 12 26 22
ROOT
ATOM      1  S   UNL     1      -6.643  -1.618 -15.825  1.00  0.00    -0.089 SA
ENDROOT
BRANCH   1   2
ATOM      2  C   UNL     1      -5.799  -1.329 -14.270  1.00  0.00    +0.025 A 
ATOM      3  C   UNL     1      -4.436  -1.003 -14.159  1.00  0.00    +0.053 A 
ATOM      4  C   UNL     1      -3.881  -0.726 -12.897  1.00  0.00    +0.015 A 
ATOM      5  C   UNL     1      -4.664  -0.806 -11.746  1.00  0.00    +0.001 A 
ATOM      6  C   UNL     1      -6.571  -1.413 -13.099  1.00  0.00    +0.016 A 
ATOM      7  C   UNL     1      -6.007  -1.155 -11.847  1.00  0.00    +0.001 A 
BRANCH   3   8
ATOM      8  C   UNL     1      -3.510  -0.892 -15.314  1.00  0.00    +0.252 C 
ATOM      9  N   UNL     1      -3.347   0.367 -15.848  1.00  0.00    -0.355 N 
ATOM     10  O   UNL     1      -2.963  -1.896 -15.754  1.00  0.00    -0.269 OA
ATOM     11  C   UNL     1      -2.396   0.615 -16.899  1.00  0.00    +0.143 C 
ATOM     12  H   UNL     1      -3.708   1.160 -15.331  1.00  0.00    +0.163 HD
ENDBRANCH   3   8
ENDBRANCH   1   2
BRANCH   1  13
ATOM     13  C   UNL     1      -7.354  -0.001 -16.104  1.00  0.00    +0.014 A 
ATOM     14  C   UNL     1      -6.846   0.799 -17.133  1.00  0.00    +0.016 A 
ATOM     15  C   UNL     1      -8.396   0.466 -15.288  1.00  0.00    +0.043 A 
ATOM     16  C   UNL     1      -7.375   2.074 -17.386  1.00  0.00    +0.014 A 
ATOM     17  C   UNL     1      -8.910   1.738 -15.566  1.00  0.00    +0.067 A 
ATOM     18  C   UNL     1      -8.432   2.551 -16.586  1.00  0.00    +0.027 A 
ATOM     19  N   UNL     1      -9.914   2.453 -14.977  1.00  0.00    -0.277 N 
ATOM     20  C   UNL     1      -9.223   3.738 -16.513  1.00  0.00    +0.093 A 
ATOM     21  N   UNL     1     -10.125   3.662 -15.522  1.00  0.00    -0.175 NA
ATOM     22  H   UNL     1     -10.498   2.170 -14.199  1.00  0.00    +0.190 HD
BRANCH  20  23
ATOM     23  C   UNL     1      -9.079   4.869 -17.382  1.00  0.00    +0.033 C 
ATOM     24  C   UNL     1     -10.071   5.405 -18.115  1.00  0.00    +0.030 C 
BRANCH  24  25
ATOM     25  C   UNL     1      -9.908   6.563 -19.000  1.00  0.00    +0.063 A 
ATOM     26  C   UNL     1      -9.531   7.795 -18.472  1.00  0.00    +0.028 A 
ATOM     27  N   UNL     1     -10.137   6.379 -20.324  1.00  0.00    -0.257 NA
ATOM     28  C   UNL     1      -9.382   8.880 -19.333  1.00  0.00    +0.004 A 
ATOM     29  C   UNL     1      -9.986   7.450 -21.134  1.00  0.00    +0.111 A 
ATOM     30  C   UNL     1      -9.614   8.707 -20.691  1.00  0.00    +0.020 A 
ENDBRANCH  24  25
ENDBRANCH  20  23
ENDBRANCH   1  13
TORSDOF 5
ENDMDL
MODEL 10
REMARK VINA RESULT:    -7.920      2.416      2.935
REMARK INTER + INTRA:         -11.230
REMARK INTER:                 -10.258
REMARK INTRA:                  -0.972
REMARK UNBOUND:                -0.995
REMARK SMILES CNC(=O)c1ccccc1Sc1ccc2c(/C=C/c3ccccn3)n[nH]c2c1
REMARK SMILES IDX 11 1 10 2 5 3 6 4 7 5 9 6 8 7 3 8 2 9 4 10 1 11 12 13 13 14
REMARK SMILES IDX 28 15 14 16 27 17 15 18 26 19 16 20 25 21 17 23 18 24 19 25
REMARK SMILES IDX 20 26 24 27 21 28 23 29 22 30
REMARK H PARENT 2 12 26 22
ROOT
ATOM      1  S   UNL     1     -14.230   0.115  -9.334  1.00  0.00    -0.089 SA
ENDROOT
BRANCH   1   2
ATOM      2  C   UNL     1     -12.978  -0.508  -8.213  1.00  0.00    +0.025 A 
ATOM      3  C   UNL     1     -12.575  -1.854  -8.146  1.00  0.00    +0.053 A 
ATOM      4  C   UNL     1     -11.533  -2.233  -7.281  1.00  0.00    +0.015 A 
ATOM      5  C   UNL     1     -10.916  -1.290  -6.460  1.00  0.00    +0.001 A 
ATOM      6  C   UNL     1     -12.350   0.427  -7.372  1.00  0.00    +0.016 A 
ATOM      7  C   UNL     1     -11.329   0.038  -6.501  1.00  0.00    +0.001 A 
BRANCH   3   8
ATOM      8  C   UNL     1     -13.162  -2.940  -8.971  1.00  0.00    +0.252 C 
ATOM      9  N   UNL     1     -12.466  -3.289 -10.106  1.00  0.00    -0.355 N 
ATOM     10  O   UNL     1     -14.224  -3.451  -8.637  1.00  0.00    -0.269 OA
ATOM     11  C   UNL     1     -12.881  -4.398 -10.925  1.00  0.00    +0.143 C 
ATOM     12  H   UNL     1     -11.525  -2.931 -10.224  1.00  0.00    +0.163 HD
ENDBRANCH   3   8
ENDBRANCH   1   2
BRANCH   1  13
ATOM     13  C   UNL     1     -13.191   0.785 -10.627  1.00  0.00    +0.014 A 
ATOM     14  C   UNL     1     -13.662   1.855 -11.395  1.00  0.00    +0.016 A 
ATOM     15  C   UNL     1     -11.926   0.231 -10.879  1.00  0.00    +0.043 A 
ATOM     16  C   UNL     1     -12.880   2.410 -12.419  1.00  0.00    +0.014 A 
ATOM     17  C   UNL     1     -11.163   0.808 -11.900  1.00  0.00    +0.067 A 
ATOM     18  C   UNL     1     -11.601   1.876 -12.673  1.00  0.00    +0.027 A 
ATOM     19  N   UNL     1      -9.913   0.515 -12.368  1.00  0.00    -0.277 N 
ATOM     20  C   UNL     1     -10.530   2.138 -13.581  1.00  0.00    +0.093 A 
ATOM     21  N   UNL     1      -9.505   1.294 -13.382  1.00  0.00    -0.175 NA
ATOM     22  H   UNL     1      -9.284  -0.207 -12.035  1.00  0.00    +0.190 HD
BRANCH  20  23
ATOM     23  C   UNL     1     -10.541   3.166 -14.580  1.00  0.00    +0.033 C 
ATOM     24  C   UNL     1      -9.513   3.450 -15.399  1.00  0.00    +0.030 C 
BRANCH  24  25
ATOM     25  C   UNL     1      -9.538   4.506 -16.417  1.00  0.00    +0.063 A 
ATOM     26  C   UNL     1     -10.586   5.423 -16.442  1.00  0.00    +0.028 A 
ATOM     27  N   UNL     1      -8.518   4.544 -17.309  1.00  0.00    -0.257 NA
ATOM     28  C   UNL     1     -10.588   6.417 -17.418  1.00  0.00    +0.004 A 
ATOM     29  C   UNL     1      -8.548   5.518 -18.245  1.00  0.00    +0.111 A 
ATOM     30  C   UNL     1      -9.550   6.468 -18.340  1.00  0.00    +0.020 A 
ENDBRANCH  24  25
ENDBRANCH  20  23
ENDBRANCH   1  13
TORSDOF 5
ENDMDL
