REMARK SMILES CCn1c(=O)c(-c2cc(NC(=O)Nc3ccccc3)c(F)cc2Br)cc2cnc(NC)cc21
REMARK SMILES IDX 3 1 4 2 5 3 6 4 25 5 26 6 27 7 28 8 29 9 32 10 33 11 2 12
REMARK SMILES IDX 1 13 7 14 8 15 23 16 9 17 22 18 20 19 24 20 21 21 10 22
REMARK SMILES IDX 11 23 12 24 13 25 14 28 15 29 19 30 16 31 18 32 17 33 30 34
REMARK SMILES IDX 31 35
REMARK H PARENT 10 26 13 27 30 36
ROOT
ATOM      1  N   UNL     1      -3.483   0.094  -1.513  1.00  0.00    -0.308 N 
ATOM      2  C   UNL     1      -2.188   0.619  -1.507  1.00  0.00    +0.258 C 
ATOM      3  O   UNL     1      -1.522   0.784  -2.530  1.00  0.00    -0.269 OA
ATOM      4  C   UNL     1      -1.595   0.982  -0.179  1.00  0.00    +0.049 C 
ATOM      5  C   UNL     1      -2.260   0.735   0.959  1.00  0.00    +0.026 C 
ATOM      6  C   UNL     1      -3.584   0.131   0.919  1.00  0.00    +0.018 A 
ATOM      7  C   UNL     1      -4.287  -0.140   2.085  1.00  0.00    +0.123 A 
ATOM      8  N   UNL     1      -5.514  -0.703   2.119  1.00  0.00    -0.239 NA
ATOM      9  C   UNL     1      -6.091  -1.024   0.948  1.00  0.00    +0.127 A 
ATOM     10  C   UNL     1      -5.459  -0.770  -0.271  1.00  0.00    +0.073 A 
ATOM     11  C   UNL     1      -4.188  -0.186  -0.298  1.00  0.00    +0.056 A 
ENDROOT
BRANCH   1  12
ATOM     12  C   UNL     1      -4.069  -0.225  -2.814  1.00  0.00    +0.122 C 
ATOM     13  C   UNL     1      -3.799  -1.664  -3.229  1.00  0.00    +0.028 C 
ENDBRANCH   1  12
BRANCH   4  14
ATOM     14  C   UNL     1      -0.257   1.601  -0.111  1.00  0.00    +0.004 A 
ATOM     15  C   UNL     1       0.867   0.762  -0.233  1.00  0.00    +0.039 A 
ATOM     16  C   UNL     1      -0.061   2.981   0.068  1.00  0.00    +0.029 A 
ATOM     17  C   UNL     1       2.165   1.279  -0.149  1.00  0.00    +0.079 A 
ATOM     18  C   UNL     1       1.230   3.507   0.123  1.00  0.00    +0.057 A 
ATOM     19  C   UNL     1       2.330   2.660   0.009  1.00  0.00    +0.147 A 
ATOM     20 Br   UNL     1      -1.511   4.201   0.210  1.00  0.00    -0.050 Br
ATOM     21  F   UNL     1       3.544   3.225  -0.033  1.00  0.00    -0.205 F 
BRANCH  17  22
ATOM     22  N   UNL     1       3.242   0.375  -0.288  1.00  0.00    -0.305 N 
ATOM     23  C   UNL     1       4.475   0.520   0.336  1.00  0.00    +0.323 C 
ATOM     24  O   UNL     1       4.697   1.304   1.249  1.00  0.00    -0.248 OA
ATOM     25  N   UNL     1       5.376  -0.387  -0.198  1.00  0.00    -0.308 N 
ATOM     26  H   UNL     1       3.008  -0.581  -0.512  1.00  0.00    +0.171 HD
ATOM     27  H   UNL     1       5.124  -0.755  -1.103  1.00  0.00    +0.171 HD
BRANCH  25  28
ATOM     28  C   UNL     1       6.688  -0.655   0.241  1.00  0.00    +0.042 A 
ATOM     29  C   UNL     1       7.222  -0.171   1.436  1.00  0.00    +0.026 A 
ATOM     30  C   UNL     1       7.481  -1.477  -0.571  1.00  0.00    +0.026 A 
ATOM     31  C   UNL     1       8.531  -0.494   1.809  1.00  0.00    +0.002 A 
ATOM     32  C   UNL     1       8.789  -1.799  -0.199  1.00  0.00    +0.002 A 
ATOM     33  C   UNL     1       9.314  -1.306   0.992  1.00  0.00    +0.000 A 
ENDBRANCH  25  28
ENDBRANCH  17  22
ENDBRANCH   4  14
BRANCH   9  34
ATOM     34  N   UNL     1      -7.379  -1.587   0.917  1.00  0.00    -0.373 N 
ATOM     35  C   UNL     1      -7.952  -1.846   2.228  1.00  0.00    +0.141 C 
ATOM     36  H   UNL     1      -7.366  -2.424   0.341  1.00  0.00    +0.161 HD
ENDBRANCH   9  34
TORSDOF 5
