MODEL 1
REMARK VINA RESULT:    -9.921      0.000      0.000
REMARK INTER + INTRA:         -13.497
REMARK INTER:                 -12.820
REMARK INTRA:                  -0.677
REMARK UNBOUND:                -0.677
REMARK SMILES CCn1c(=O)c(-c2cc(NC(=O)Nc3ccccc3)c(F)cc2Br)cc2cnc(NC)cc21
REMARK SMILES IDX 3 1 4 2 5 3 6 4 25 5 26 6 27 7 28 8 29 9 32 10 33 11 2 12
REMARK SMILES IDX 1 13 7 14 8 15 23 16 9 17 22 18 20 19 24 20 21 21 10 22
REMARK SMILES IDX 11 23 12 24 13 25 14 28 15 29 19 30 16 31 18 32 17 33 30 34
REMARK SMILES IDX 31 35
REMARK H PARENT 10 26 13 27 30 36
ROOT
ATOM      1  N   UNL     1     -38.782 160.912  -3.534  1.00  0.00    -0.308 N 
ATOM      2  C   UNL     1     -39.185 160.091  -2.478  1.00  0.00    +0.258 C 
ATOM      3  O   UNL     1     -39.363 158.878  -2.597  1.00  0.00    -0.269 OA
ATOM      4  C   UNL     1     -39.417 160.739  -1.147  1.00  0.00    +0.049 C 
ATOM      5  C   UNL     1     -39.315 162.069  -1.005  1.00  0.00    +0.026 C 
ATOM      6  C   UNL     1     -38.951 162.902  -2.142  1.00  0.00    +0.018 A 
ATOM      7  C   UNL     1     -38.847 164.281  -2.020  1.00  0.00    +0.123 A 
ATOM      8  N   UNL     1     -38.521 165.111  -3.034  1.00  0.00    -0.239 NA
ATOM      9  C   UNL     1     -38.283 164.567  -4.240  1.00  0.00    +0.127 A 
ATOM     10  C   UNL     1     -38.350 163.188  -4.445  1.00  0.00    +0.073 A 
ATOM     11  C   UNL     1     -38.689 162.334  -3.389  1.00  0.00    +0.056 A 
ENDROOT
BRANCH   1  12
ATOM     12  C   UNL     1     -38.524 160.268  -4.821  1.00  0.00    +0.122 C 
ATOM     13  C   UNL     1     -39.741 160.296  -5.733  1.00  0.00    +0.028 C 
ENDBRANCH   1  12
BRANCH   4  14
ATOM     14  C   UNL     1     -39.781 159.917   0.023  1.00  0.00    +0.004 A 
ATOM     15  C   UNL     1     -38.779 159.117   0.606  1.00  0.00    +0.039 A 
ATOM     16  C   UNL     1     -41.073 159.900   0.575  1.00  0.00    +0.029 A 
ATOM     17  C   UNL     1     -39.063 158.291   1.700  1.00  0.00    +0.079 A 
ATOM     18  C   UNL     1     -41.355 159.102   1.683  1.00  0.00    +0.057 A 
ATOM     19  C   UNL     1     -40.354 158.310   2.241  1.00  0.00    +0.147 A 
ATOM     20 Br   UNL     1     -42.484 160.968  -0.118  1.00  0.00    -0.050 Br
ATOM     21  F   UNL     1     -40.648 157.640   3.364  1.00  0.00    -0.205 F 
BRANCH  17  22
ATOM     22  N   UNL     1     -38.004 157.523   2.235  1.00  0.00    -0.305 N 
ATOM     23  C   UNL     1     -37.395 157.768   3.459  1.00  0.00    +0.323 C 
ATOM     24  O   UNL     1     -37.847 158.517   4.315  1.00  0.00    -0.248 OA
ATOM     25  N   UNL     1     -36.247 157.000   3.571  1.00  0.00    -0.308 N 
ATOM     26  H   UNL     1     -37.942 156.561   1.934  1.00  0.00    +0.171 HD
ATOM     27  H   UNL     1     -35.877 156.660   2.696  1.00  0.00    +0.171 HD
BRANCH  25  28
ATOM     28  C   UNL     1     -35.416 156.856   4.699  1.00  0.00    +0.042 A 
ATOM     29  C   UNL     1     -34.122 157.370   4.782  1.00  0.00    +0.026 A 
ATOM     30  C   UNL     1     -35.945 156.173   5.803  1.00  0.00    +0.026 A 
ATOM     31  C   UNL     1     -33.363 157.196   5.945  1.00  0.00    +0.002 A 
ATOM     32  C   UNL     1     -35.188 155.998   6.964  1.00  0.00    +0.002 A 
ATOM     33  C   UNL     1     -33.896 156.510   7.034  1.00  0.00    +0.000 A 
ENDBRANCH  25  28
ENDBRANCH  17  22
ENDBRANCH   4  14
BRANCH   9  34
ATOM     34  N   UNL     1     -37.911 165.377  -5.328  1.00  0.00    -0.373 N 
ATOM     35  C   UNL     1     -38.222 164.811  -6.630  1.00  0.00    +0.141 C 
ATOM     36  H   UNL     1     -36.927 165.616  -5.248  1.00  0.00    +0.161 HD
ENDBRANCH   9  34
TORSDOF 5
ENDMDL
MODEL 2
REMARK VINA RESULT:    -9.906      1.226      2.401
REMARK INTER + INTRA:         -13.479
REMARK INTER:                 -13.246
REMARK INTRA:                  -0.233
REMARK UNBOUND:                -0.677
REMARK SMILES CCn1c(=O)c(-c2cc(NC(=O)Nc3ccccc3)c(F)cc2Br)cc2cnc(NC)cc21
REMARK SMILES IDX 3 1 4 2 5 3 6 4 25 5 26 6 27 7 28 8 29 9 32 10 33 11 2 12
REMARK SMILES IDX 1 13 7 14 8 15 23 16 9 17 22 18 20 19 24 20 21 21 10 22
REMARK SMILES IDX 11 23 12 24 13 25 14 28 15 29 19 30 16 31 18 32 17 33 30 34
REMARK SMILES IDX 31 35
REMARK H PARENT 10 26 13 27 30 36
ROOT
ATOM      1  N   UNL     1     -38.723 162.831  -2.194  1.00  0.00    -0.308 N 
ATOM      2  C   UNL     1     -39.006 162.108  -1.032  1.00  0.00    +0.258 C 
ATOM      3  O   UNL     1     -38.918 162.587   0.099  1.00  0.00    -0.269 OA
ATOM      4  C   UNL     1     -39.423 160.677  -1.193  1.00  0.00    +0.049 C 
ATOM      5  C   UNL     1     -39.445 160.101  -2.403  1.00  0.00    +0.026 C 
ATOM      6  C   UNL     1     -39.086 160.868  -3.588  1.00  0.00    +0.018 A 
ATOM      7  C   UNL     1     -39.095 160.290  -4.850  1.00  0.00    +0.123 A 
ATOM      8  N   UNL     1     -38.769 160.942  -5.986  1.00  0.00    -0.239 NA
ATOM      9  C   UNL     1     -38.409 162.233  -5.889  1.00  0.00    +0.127 A 
ATOM     10  C   UNL     1     -38.390 162.895  -4.660  1.00  0.00    +0.073 A 
ATOM     11  C   UNL     1     -38.730 162.213  -3.487  1.00  0.00    +0.056 A 
ENDROOT
BRANCH   1  12
ATOM     12  C   UNL     1     -38.351 164.236  -2.033  1.00  0.00    +0.122 C 
ATOM     13  C   UNL     1     -39.000 165.126  -3.082  1.00  0.00    +0.028 C 
ENDBRANCH   1  12
BRANCH   4  14
ATOM     14  C   UNL     1     -39.798 159.879  -0.009  1.00  0.00    +0.004 A 
ATOM     15  C   UNL     1     -38.810 159.068   0.581  1.00  0.00    +0.039 A 
ATOM     16  C   UNL     1     -41.088 159.897   0.548  1.00  0.00    +0.029 A 
ATOM     17  C   UNL     1     -39.105 158.264   1.688  1.00  0.00    +0.079 A 
ATOM     18  C   UNL     1     -41.380 159.120   1.670  1.00  0.00    +0.057 A 
ATOM     19  C   UNL     1     -40.392 158.317   2.235  1.00  0.00    +0.147 A 
ATOM     20 Br   UNL     1     -42.481 160.982  -0.153  1.00  0.00    -0.050 Br
ATOM     21  F   UNL     1     -40.695 157.669   3.368  1.00  0.00    -0.205 F 
BRANCH  17  22
ATOM     22  N   UNL     1     -38.059 157.482   2.229  1.00  0.00    -0.305 N 
ATOM     23  C   UNL     1     -37.461 157.714   3.462  1.00  0.00    +0.323 C 
ATOM     24  O   UNL     1     -37.915 158.463   4.317  1.00  0.00    -0.248 OA
ATOM     25  N   UNL     1     -36.322 156.935   3.580  1.00  0.00    -0.308 N 
ATOM     26  H   UNL     1     -38.003 156.522   1.923  1.00  0.00    +0.171 HD
ATOM     27  H   UNL     1     -35.945 156.596   2.708  1.00  0.00    +0.171 HD
BRANCH  25  28
ATOM     28  C   UNL     1     -35.504 156.776   4.717  1.00  0.00    +0.042 A 
ATOM     29  C   UNL     1     -35.868 156.028   5.838  1.00  0.00    +0.026 A 
ATOM     30  C   UNL     1     -34.246 157.391   4.693  1.00  0.00    +0.026 A 
ATOM     31  C   UNL     1     -34.993 155.906   6.922  1.00  0.00    +0.002 A 
ATOM     32  C   UNL     1     -33.372 157.270   5.777  1.00  0.00    +0.002 A 
ATOM     33  C   UNL     1     -33.747 156.527   6.893  1.00  0.00    +0.000 A 
ENDBRANCH  25  28
ENDBRANCH  17  22
ENDBRANCH   4  14
BRANCH   9  34
ATOM     34  N   UNL     1     -38.085 162.973  -7.040  1.00  0.00    -0.373 N 
ATOM     35  C   UNL     1     -38.297 164.406  -6.912  1.00  0.00    +0.141 C 
ATOM     36  H   UNL     1     -38.585 162.590  -7.838  1.00  0.00    +0.161 HD
ENDBRANCH   9  34
TORSDOF 5
ENDMDL
MODEL 3
REMARK VINA RESULT:    -9.006      5.383     12.477
REMARK INTER + INTRA:         -12.315
REMARK INTER:                 -13.169
REMARK INTRA:                   0.854
REMARK UNBOUND:                -0.677
REMARK SMILES CCn1c(=O)c(-c2cc(NC(=O)Nc3ccccc3)c(F)cc2Br)cc2cnc(NC)cc21
REMARK SMILES IDX 3 1 4 2 5 3 6 4 25 5 26 6 27 7 28 8 29 9 32 10 33 11 2 12
REMARK SMILES IDX 1 13 7 14 8 15 23 16 9 17 22 18 20 19 24 20 21 21 10 22
REMARK SMILES IDX 11 23 12 24 13 25 14 28 15 29 19 30 16 31 18 32 17 33 30 34
REMARK SMILES IDX 31 35
REMARK H PARENT 10 26 13 27 30 36
ROOT
ATOM      1  N   UNL     1     -37.670 150.899   5.592  1.00  0.00    -0.308 N 
ATOM      2  C   UNL     1     -37.445 152.201   5.136  1.00  0.00    +0.258 C 
ATOM      3  O   UNL     1     -38.070 152.706   4.202  1.00  0.00    -0.269 OA
ATOM      4  C   UNL     1     -36.380 153.001   5.823  1.00  0.00    +0.049 C 
ATOM      5  C   UNL     1     -35.624 152.452   6.785  1.00  0.00    +0.026 C 
ATOM      6  C   UNL     1     -35.845 151.072   7.194  1.00  0.00    +0.018 A 
ATOM      7  C   UNL     1     -35.069 150.482   8.183  1.00  0.00    +0.123 A 
ATOM      8  N   UNL     1     -35.218 149.208   8.605  1.00  0.00    -0.239 NA
ATOM      9  C   UNL     1     -36.177 148.462   8.029  1.00  0.00    +0.127 A 
ATOM     10  C   UNL     1     -37.012 148.985   7.039  1.00  0.00    +0.073 A 
ATOM     11  C   UNL     1     -36.852 150.306   6.607  1.00  0.00    +0.056 A 
ENDROOT
BRANCH   1  12
ATOM     12  C   UNL     1     -38.734 150.137   4.941  1.00  0.00    +0.122 C 
ATOM     13  C   UNL     1     -40.018 150.129   5.758  1.00  0.00    +0.028 C 
ENDBRANCH   1  12
BRANCH   4  14
ATOM     14  C   UNL     1     -36.140 154.403   5.431  1.00  0.00    +0.004 A 
ATOM     15  C   UNL     1     -37.233 155.156   4.964  1.00  0.00    +0.039 A 
ATOM     16  C   UNL     1     -34.875 155.012   5.505  1.00  0.00    +0.029 A 
ATOM     17  C   UNL     1     -37.071 156.483   4.549  1.00  0.00    +0.079 A 
ATOM     18  C   UNL     1     -34.711 156.343   5.121  1.00  0.00    +0.057 A 
ATOM     19  C   UNL     1     -35.804 157.070   4.653  1.00  0.00    +0.147 A 
ATOM     20 Br   UNL     1     -33.343 154.092   6.152  1.00  0.00    -0.050 Br
ATOM     21  F   UNL     1     -35.616 158.370   4.393  1.00  0.00    -0.205 F 
BRANCH  17  22
ATOM     22  N   UNL     1     -38.217 157.176   4.099  1.00  0.00    -0.305 N 
ATOM     23  C   UNL     1     -38.310 157.833   2.878  1.00  0.00    +0.323 C 
ATOM     24  O   UNL     1     -37.512 157.696   1.960  1.00  0.00    -0.248 OA
ATOM     25  N   UNL     1     -39.458 158.608   2.853  1.00  0.00    -0.308 N 
ATOM     26  H   UNL     1     -39.106 156.872   4.467  1.00  0.00    +0.171 HD
ATOM     27  H   UNL     1     -39.846 158.823   3.759  1.00  0.00    +0.171 HD
BRANCH  25  28
ATOM     28  C   UNL     1     -39.987 159.324   1.761  1.00  0.00    +0.042 A 
ATOM     29  C   UNL     1     -39.212 160.069   0.871  1.00  0.00    +0.026 A 
ATOM     30  C   UNL     1     -41.372 159.254   1.559  1.00  0.00    +0.026 A 
ATOM     31  C   UNL     1     -39.812 160.743  -0.198  1.00  0.00    +0.002 A 
ATOM     32  C   UNL     1     -41.972 159.927   0.491  1.00  0.00    +0.002 A 
ATOM     33  C   UNL     1     -41.191 160.673  -0.388  1.00  0.00    +0.000 A 
ENDBRANCH  25  28
ENDBRANCH  17  22
ENDBRANCH   4  14
BRANCH   9  34
ATOM     34  N   UNL     1     -36.399 147.138   8.446  1.00  0.00    -0.373 N 
ATOM     35  C   UNL     1     -35.328 146.215   8.105  1.00  0.00    +0.141 C 
ATOM     36  H   UNL     1     -37.296 146.819   8.090  1.00  0.00    +0.161 HD
ENDBRANCH   9  34
TORSDOF 5
ENDMDL
MODEL 4
REMARK VINA RESULT:    -8.502      5.464     12.116
REMARK INTER + INTRA:         -11.664
REMARK INTER:                 -11.362
REMARK INTRA:                  -0.301
REMARK UNBOUND:                -0.677
REMARK SMILES CCn1c(=O)c(-c2cc(NC(=O)Nc3ccccc3)c(F)cc2Br)cc2cnc(NC)cc21
REMARK SMILES IDX 3 1 4 2 5 3 6 4 25 5 26 6 27 7 28 8 29 9 32 10 33 11 2 12
REMARK SMILES IDX 1 13 7 14 8 15 23 16 9 17 22 18 20 19 24 20 21 21 10 22
REMARK SMILES IDX 11 23 12 24 13 25 14 28 15 29 19 30 16 31 18 32 17 33 30 34
REMARK SMILES IDX 31 35
REMARK H PARENT 10 26 13 27 30 36
ROOT
ATOM      1  N   UNL     1     -36.052 150.874   5.514  1.00  0.00    -0.308 N 
ATOM      2  C   UNL     1     -35.916 152.264   5.472  1.00  0.00    +0.258 C 
ATOM      3  O   UNL     1     -34.854 152.830   5.210  1.00  0.00    -0.269 OA
ATOM      4  C   UNL     1     -37.131 153.088   5.775  1.00  0.00    +0.049 C 
ATOM      5  C   UNL     1     -38.279 152.504   6.148  1.00  0.00    +0.026 C 
ATOM      6  C   UNL     1     -38.369 151.054   6.240  1.00  0.00    +0.018 A 
ATOM      7  C   UNL     1     -39.545 150.428   6.631  1.00  0.00    +0.123 A 
ATOM      8  N   UNL     1     -39.694 149.091   6.742  1.00  0.00    -0.239 NA
ATOM      9  C   UNL     1     -38.634 148.315   6.458  1.00  0.00    +0.127 A 
ATOM     10  C   UNL     1     -37.419 148.862   6.042  1.00  0.00    +0.073 A 
ATOM     11  C   UNL     1     -37.273 150.249   5.929  1.00  0.00    +0.056 A 
ENDROOT
BRANCH   1  12
ATOM     12  C   UNL     1     -34.872 150.076   5.183  1.00  0.00    +0.122 C 
ATOM     13  C   UNL     1     -35.038 149.321   3.873  1.00  0.00    +0.028 C 
ENDBRANCH   1  12
BRANCH   4  14
ATOM     14  C   UNL     1     -37.069 154.559   5.684  1.00  0.00    +0.004 A 
ATOM     15  C   UNL     1     -37.861 155.196   4.709  1.00  0.00    +0.039 A 
ATOM     16  C   UNL     1     -36.259 155.344   6.522  1.00  0.00    +0.029 A 
ATOM     17  C   UNL     1     -37.828 156.586   4.549  1.00  0.00    +0.079 A 
ATOM     18  C   UNL     1     -36.244 156.733   6.388  1.00  0.00    +0.057 A 
ATOM     19  C   UNL     1     -37.028 157.344   5.412  1.00  0.00    +0.147 A 
ATOM     20 Br   UNL     1     -35.180 154.585   7.889  1.00  0.00    -0.050 Br
ATOM     21  F   UNL     1     -37.056 158.683   5.390  1.00  0.00    -0.205 F 
BRANCH  17  22
ATOM     22  N   UNL     1     -38.657 157.152   3.554  1.00  0.00    -0.305 N 
ATOM     23  C   UNL     1     -38.196 157.918   2.491  1.00  0.00    +0.323 C 
ATOM     24  O   UNL     1     -37.021 158.000   2.158  1.00  0.00    -0.248 OA
ATOM     25  N   UNL     1     -39.269 158.519   1.851  1.00  0.00    -0.308 N 
ATOM     26  H   UNL     1     -39.532 156.684   3.371  1.00  0.00    +0.171 HD
ATOM     27  H   UNL     1     -40.114 158.575   2.399  1.00  0.00    +0.171 HD
BRANCH  25  28
ATOM     28  C   UNL     1     -39.248 159.267   0.657  1.00  0.00    +0.042 A 
ATOM     29  C   UNL     1     -39.236 160.662   0.614  1.00  0.00    +0.026 A 
ATOM     30  C   UNL     1     -39.214 158.553  -0.548  1.00  0.00    +0.026 A 
ATOM     31  C   UNL     1     -39.201 161.333  -0.613  1.00  0.00    +0.002 A 
ATOM     32  C   UNL     1     -39.180 159.222  -1.774  1.00  0.00    +0.002 A 
ATOM     33  C   UNL     1     -39.175 160.614  -1.805  1.00  0.00    +0.000 A 
ENDBRANCH  25  28
ENDBRANCH  17  22
ENDBRANCH   4  14
BRANCH   9  34
ATOM     34  N   UNL     1     -38.735 146.914   6.528  1.00  0.00    -0.373 N 
ATOM     35  C   UNL     1     -40.095 146.406   6.443  1.00  0.00    +0.141 C 
ATOM     36  H   UNL     1     -38.263 146.584   7.365  1.00  0.00    +0.161 HD
ENDBRANCH   9  34
TORSDOF 5
ENDMDL
MODEL 5
REMARK VINA RESULT:    -8.466     10.424     12.881
REMARK INTER + INTRA:         -11.618
REMARK INTER:                 -10.685
REMARK INTRA:                  -0.933
REMARK UNBOUND:                -0.677
REMARK SMILES CCn1c(=O)c(-c2cc(NC(=O)Nc3ccccc3)c(F)cc2Br)cc2cnc(NC)cc21
REMARK SMILES IDX 3 1 4 2 5 3 6 4 25 5 26 6 27 7 28 8 29 9 32 10 33 11 2 12
REMARK SMILES IDX 1 13 7 14 8 15 23 16 9 17 22 18 20 19 24 20 21 21 10 22
REMARK SMILES IDX 11 23 12 24 13 25 14 28 15 29 19 30 16 31 18 32 17 33 30 34
REMARK SMILES IDX 31 35
REMARK H PARENT 10 26 13 27 30 36
ROOT
ATOM      1  N   UNL     1     -36.224 147.265  -1.286  1.00  0.00    -0.308 N 
ATOM      2  C   UNL     1     -35.637 147.261  -0.018  1.00  0.00    +0.258 C 
ATOM      3  O   UNL     1     -34.423 147.154   0.163  1.00  0.00    -0.269 OA
ATOM      4  C   UNL     1     -36.548 147.383   1.166  1.00  0.00    +0.049 C 
ATOM      5  C   UNL     1     -37.879 147.414   1.006  1.00  0.00    +0.026 C 
ATOM      6  C   UNL     1     -38.460 147.355  -0.328  1.00  0.00    +0.018 A 
ATOM      7  C   UNL     1     -39.835 147.378  -0.516  1.00  0.00    +0.123 A 
ATOM      8  N   UNL     1     -40.438 147.321  -1.723  1.00  0.00    -0.239 NA
ATOM      9  C   UNL     1     -39.656 147.234  -2.812  1.00  0.00    +0.127 A 
ATOM     10  C   UNL     1     -38.263 147.221  -2.712  1.00  0.00    +0.073 A 
ATOM     11  C   UNL     1     -37.646 147.281  -1.458  1.00  0.00    +0.056 A 
ENDROOT
BRANCH   1  12
ATOM     12  C   UNL     1     -35.327 147.181  -2.438  1.00  0.00    +0.122 C 
ATOM     13  C   UNL     1     -35.011 145.742  -2.818  1.00  0.00    +0.028 C 
ENDBRANCH   1  12
BRANCH   4  14
ATOM     14  C   UNL     1     -35.985 147.450   2.528  1.00  0.00    +0.004 A 
ATOM     15  C   UNL     1     -35.647 148.717   3.042  1.00  0.00    +0.039 A 
ATOM     16  C   UNL     1     -35.775 146.313   3.326  1.00  0.00    +0.029 A 
ATOM     17  C   UNL     1     -35.082 148.850   4.316  1.00  0.00    +0.079 A 
ATOM     18  C   UNL     1     -35.240 146.442   4.608  1.00  0.00    +0.057 A 
ATOM     19  C   UNL     1     -34.903 147.702   5.096  1.00  0.00    +0.147 A 
ATOM     20 Br   UNL     1     -36.228 144.564   2.738  1.00  0.00    -0.050 Br
ATOM     21  F   UNL     1     -34.488 147.783   6.368  1.00  0.00    -0.205 F 
BRANCH  17  22
ATOM     22  N   UNL     1     -34.776 150.155   4.765  1.00  0.00    -0.305 N 
ATOM     23  C   UNL     1     -35.704 151.038   5.304  1.00  0.00    +0.323 C 
ATOM     24  O   UNL     1     -36.828 150.719   5.667  1.00  0.00    -0.248 OA
ATOM     25  N   UNL     1     -35.139 152.299   5.409  1.00  0.00    -0.308 N 
ATOM     26  H   UNL     1     -33.829 150.320   5.072  1.00  0.00    +0.171 HD
ATOM     27  H   UNL     1     -34.330 152.453   4.827  1.00  0.00    +0.171 HD
BRANCH  25  28
ATOM     28  C   UNL     1     -35.695 153.441   6.020  1.00  0.00    +0.042 A 
ATOM     29  C   UNL     1     -37.004 153.876   5.810  1.00  0.00    +0.026 A 
ATOM     30  C   UNL     1     -34.878 154.155   6.907  1.00  0.00    +0.026 A 
ATOM     31  C   UNL     1     -37.486 155.014   6.466  1.00  0.00    +0.002 A 
ATOM     32  C   UNL     1     -35.359 155.292   7.561  1.00  0.00    +0.002 A 
ATOM     33  C   UNL     1     -36.664 155.721   7.340  1.00  0.00    +0.000 A 
ENDBRANCH  25  28
ENDBRANCH  17  22
ENDBRANCH   4  14
BRANCH   9  34
ATOM     34  N   UNL     1     -40.224 147.199  -4.098  1.00  0.00    -0.373 N 
ATOM     35  C   UNL     1     -41.298 146.232  -4.254  1.00  0.00    +0.141 C 
ATOM     36  H   UNL     1     -39.489 147.059  -4.786  1.00  0.00    +0.161 HD
ENDBRANCH   9  34
TORSDOF 5
ENDMDL
MODEL 6
REMARK VINA RESULT:    -8.370      9.668     12.660
REMARK INTER + INTRA:         -11.493
REMARK INTER:                 -10.324
REMARK INTRA:                  -1.170
REMARK UNBOUND:                -0.677
REMARK SMILES CCn1c(=O)c(-c2cc(NC(=O)Nc3ccccc3)c(F)cc2Br)cc2cnc(NC)cc21
REMARK SMILES IDX 3 1 4 2 5 3 6 4 25 5 26 6 27 7 28 8 29 9 32 10 33 11 2 12
REMARK SMILES IDX 1 13 7 14 8 15 23 16 9 17 22 18 20 19 24 20 21 21 10 22
REMARK SMILES IDX 11 23 12 24 13 25 14 28 15 29 19 30 16 31 18 32 17 33 30 34
REMARK SMILES IDX 31 35
REMARK H PARENT 10 26 13 27 30 36
ROOT
ATOM      1  N   UNL     1     -36.174 146.074   1.951  1.00  0.00    -0.308 N 
ATOM      2  C   UNL     1     -36.758 146.802   2.992  1.00  0.00    +0.258 C 
ATOM      3  O   UNL     1     -36.869 146.368   4.139  1.00  0.00    -0.269 OA
ATOM      4  C   UNL     1     -37.278 148.171   2.671  1.00  0.00    +0.049 C 
ATOM      5  C   UNL     1     -37.249 148.638   1.414  1.00  0.00    +0.026 C 
ATOM      6  C   UNL     1     -36.688 147.828   0.343  1.00  0.00    +0.018 A 
ATOM      7  C   UNL     1     -36.655 148.288  -0.966  1.00  0.00    +0.123 A 
ATOM      8  N   UNL     1     -36.155 147.587  -2.006  1.00  0.00    -0.239 NA
ATOM      9  C   UNL     1     -35.658 146.363  -1.758  1.00  0.00    +0.127 A 
ATOM     10  C   UNL     1     -35.638 145.831  -0.467  1.00  0.00    +0.073 A 
ATOM     11  C   UNL     1     -36.158 146.564   0.606  1.00  0.00    +0.056 A 
ENDROOT
BRANCH   1  12
ATOM     12  C   UNL     1     -35.637 144.754   2.278  1.00  0.00    +0.122 C 
ATOM     13  C   UNL     1     -34.148 144.799   2.588  1.00  0.00    +0.028 C 
ENDBRANCH   1  12
BRANCH   4  14
ATOM     14  C   UNL     1     -37.846 149.015   3.740  1.00  0.00    +0.004 A 
ATOM     15  C   UNL     1     -36.991 149.924   4.390  1.00  0.00    +0.039 A 
ATOM     16  C   UNL     1     -39.195 148.949   4.130  1.00  0.00    +0.029 A 
ATOM     17  C   UNL     1     -37.458 150.734   5.432  1.00  0.00    +0.079 A 
ATOM     18  C   UNL     1     -39.674 149.775   5.148  1.00  0.00    +0.057 A 
ATOM     19  C   UNL     1     -38.810 150.662   5.786  1.00  0.00    +0.147 A 
ATOM     20 Br   UNL     1     -40.437 147.780   3.293  1.00  0.00    -0.050 Br
ATOM     21  F   UNL     1     -39.340 151.502   6.685  1.00  0.00    -0.205 F 
BRANCH  17  22
ATOM     22  N   UNL     1     -36.541 151.627   6.031  1.00  0.00    -0.305 N 
ATOM     23  C   UNL     1     -36.319 152.930   5.603  1.00  0.00    +0.323 C 
ATOM     24  O   UNL     1     -37.044 153.531   4.821  1.00  0.00    -0.248 OA
ATOM     25  N   UNL     1     -35.198 153.443   6.235  1.00  0.00    -0.308 N 
ATOM     26  H   UNL     1     -36.330 151.477   7.007  1.00  0.00    +0.171 HD
ATOM     27  H   UNL     1     -34.574 152.752   6.623  1.00  0.00    +0.171 HD
BRANCH  25  28
ATOM     28  C   UNL     1     -34.709 154.764   6.181  1.00  0.00    +0.042 A 
ATOM     29  C   UNL     1     -34.923 155.714   7.180  1.00  0.00    +0.026 A 
ATOM     30  C   UNL     1     -33.946 155.119   5.060  1.00  0.00    +0.026 A 
ATOM     31  C   UNL     1     -34.391 157.002   7.058  1.00  0.00    +0.002 A 
ATOM     32  C   UNL     1     -33.416 156.406   4.938  1.00  0.00    +0.002 A 
ATOM     33  C   UNL     1     -33.640 157.348   5.938  1.00  0.00    +0.000 A 
ENDBRANCH  25  28
ENDBRANCH  17  22
ENDBRANCH   4  14
BRANCH   9  34
ATOM     34  N   UNL     1     -35.098 145.595  -2.794  1.00  0.00    -0.373 N 
ATOM     35  C   UNL     1     -33.705 145.235  -2.588  1.00  0.00    +0.141 C 
ATOM     36  H   UNL     1     -35.234 146.076  -3.679  1.00  0.00    +0.161 HD
ENDBRANCH   9  34
TORSDOF 5
ENDMDL
MODEL 7
REMARK VINA RESULT:    -8.340      9.646     12.961
REMARK INTER + INTRA:         -11.455
REMARK INTER:                 -10.462
REMARK INTRA:                  -0.992
REMARK UNBOUND:                -0.677
REMARK SMILES CCn1c(=O)c(-c2cc(NC(=O)Nc3ccccc3)c(F)cc2Br)cc2cnc(NC)cc21
REMARK SMILES IDX 3 1 4 2 5 3 6 4 25 5 26 6 27 7 28 8 29 9 32 10 33 11 2 12
REMARK SMILES IDX 1 13 7 14 8 15 23 16 9 17 22 18 20 19 24 20 21 21 10 22
REMARK SMILES IDX 11 23 12 24 13 25 14 28 15 29 19 30 16 31 18 32 17 33 30 34
REMARK SMILES IDX 31 35
REMARK H PARENT 10 26 13 27 30 36
ROOT
ATOM      1  N   UNL     1     -35.928 151.311   6.583  1.00  0.00    -0.308 N 
ATOM      2  C   UNL     1     -36.635 150.325   5.889  1.00  0.00    +0.258 C 
ATOM      3  O   UNL     1     -36.357 149.126   5.950  1.00  0.00    -0.269 OA
ATOM      4  C   UNL     1     -37.775 150.771   5.024  1.00  0.00    +0.049 C 
ATOM      5  C   UNL     1     -38.048 152.074   4.868  1.00  0.00    +0.026 C 
ATOM      6  C   UNL     1     -37.253 153.079   5.560  1.00  0.00    +0.018 A 
ATOM      7  C   UNL     1     -37.514 154.434   5.408  1.00  0.00    +0.123 A 
ATOM      8  N   UNL     1     -36.813 155.415   6.015  1.00  0.00    -0.239 NA
ATOM      9  C   UNL     1     -35.795 155.057   6.818  1.00  0.00    +0.127 A 
ATOM     10  C   UNL     1     -35.477 153.715   7.038  1.00  0.00    +0.073 A 
ATOM     11  C   UNL     1     -36.208 152.704   6.405  1.00  0.00    +0.056 A 
ENDROOT
BRANCH   1  12
ATOM     12  C   UNL     1     -34.840 150.866   7.453  1.00  0.00    +0.122 C 
ATOM     13  C   UNL     1     -35.320 150.561   8.864  1.00  0.00    +0.028 C 
ENDBRANCH   1  12
BRANCH   4  14
ATOM     14  C   UNL     1     -38.600 149.773   4.316  1.00  0.00    +0.004 A 
ATOM     15  C   UNL     1     -38.193 149.370   3.030  1.00  0.00    +0.039 A 
ATOM     16  C   UNL     1     -39.765 149.213   4.868  1.00  0.00    +0.029 A 
ATOM     17  C   UNL     1     -38.944 148.449   2.291  1.00  0.00    +0.079 A 
ATOM     18  C   UNL     1     -40.503 148.272   4.149  1.00  0.00    +0.057 A 
ATOM     19  C   UNL     1     -40.088 147.892   2.875  1.00  0.00    +0.147 A 
ATOM     20 Br   UNL     1     -40.380 149.666   6.608  1.00  0.00    -0.050 Br
ATOM     21  F   UNL     1     -40.773 146.914   2.268  1.00  0.00    -0.205 F 
BRANCH  17  22
ATOM     22  N   UNL     1     -38.467 148.088   1.011  1.00  0.00    -0.305 N 
ATOM     23  C   UNL     1     -37.258 147.445   0.775  1.00  0.00    +0.323 C 
ATOM     24  O   UNL     1     -36.581 146.911   1.644  1.00  0.00    -0.248 OA
ATOM     25  N   UNL     1     -36.979 147.461  -0.582  1.00  0.00    -0.308 N 
ATOM     26  H   UNL     1     -39.160 147.929   0.295  1.00  0.00    +0.171 HD
ATOM     27  H   UNL     1     -37.479 148.160  -1.111  1.00  0.00    +0.171 HD
BRANCH  25  28
ATOM     28  C   UNL     1     -35.924 146.809  -1.250  1.00  0.00    +0.042 A 
ATOM     29  C   UNL     1     -36.100 145.722  -2.107  1.00  0.00    +0.026 A 
ATOM     30  C   UNL     1     -34.630 147.311  -1.049  1.00  0.00    +0.026 A 
ATOM     31  C   UNL     1     -35.001 145.138  -2.745  1.00  0.00    +0.002 A 
ATOM     32  C   UNL     1     -33.532 146.726  -1.686  1.00  0.00    +0.002 A 
ATOM     33  C   UNL     1     -33.718 145.638  -2.534  1.00  0.00    +0.000 A 
ENDBRANCH  25  28
ENDBRANCH  17  22
ENDBRANCH   4  14
BRANCH   9  34
ATOM     34  N   UNL     1     -35.046 156.032   7.500  1.00  0.00    -0.373 N 
ATOM     35  C   UNL     1     -34.269 156.905   6.635  1.00  0.00    +0.141 C 
ATOM     36  H   UNL     1     -34.463 155.580   8.198  1.00  0.00    +0.161 HD
ENDBRANCH   9  34
TORSDOF 5
ENDMDL
MODEL 8
REMARK VINA RESULT:    -8.285      5.451     12.630
REMARK INTER + INTRA:         -11.384
REMARK INTER:                 -11.407
REMARK INTRA:                   0.023
REMARK UNBOUND:                -0.677
REMARK SMILES CCn1c(=O)c(-c2cc(NC(=O)Nc3ccccc3)c(F)cc2Br)cc2cnc(NC)cc21
REMARK SMILES IDX 3 1 4 2 5 3 6 4 25 5 26 6 27 7 28 8 29 9 32 10 33 11 2 12
REMARK SMILES IDX 1 13 7 14 8 15 23 16 9 17 22 18 20 19 24 20 21 21 10 22
REMARK SMILES IDX 11 23 12 24 13 25 14 28 15 29 19 30 16 31 18 32 17 33 30 34
REMARK SMILES IDX 31 35
REMARK H PARENT 10 26 13 27 30 36
ROOT
ATOM      1  N   UNL     1     -36.144 151.121   7.579  1.00  0.00    -0.308 N 
ATOM      2  C   UNL     1     -35.959 152.461   7.228  1.00  0.00    +0.258 C 
ATOM      3  O   UNL     1     -35.550 153.314   8.016  1.00  0.00    -0.269 OA
ATOM      4  C   UNL     1     -36.290 152.859   5.821  1.00  0.00    +0.049 C 
ATOM      5  C   UNL     1     -36.818 151.974   4.964  1.00  0.00    +0.026 C 
ATOM      6  C   UNL     1     -37.054 150.599   5.382  1.00  0.00    +0.018 A 
ATOM      7  C   UNL     1     -37.606 149.668   4.513  1.00  0.00    +0.123 A 
ATOM      8  N   UNL     1     -37.856 148.381   4.838  1.00  0.00    -0.239 NA
ATOM      9  C   UNL     1     -37.553 147.976   6.084  1.00  0.00    +0.127 A 
ATOM     10  C   UNL     1     -36.979 148.846   7.014  1.00  0.00    +0.073 A 
ATOM     11  C   UNL     1     -36.723 150.177   6.670  1.00  0.00    +0.056 A 
ENDROOT
BRANCH   1  12
ATOM     12  C   UNL     1     -35.785 150.731   8.941  1.00  0.00    +0.122 C 
ATOM     13  C   UNL     1     -34.391 150.125   9.018  1.00  0.00    +0.028 C 
ENDBRANCH   1  12
BRANCH   4  14
ATOM     14  C   UNL     1     -36.055 154.245   5.371  1.00  0.00    +0.004 A 
ATOM     15  C   UNL     1     -37.165 154.999   4.945  1.00  0.00    +0.039 A 
ATOM     16  C   UNL     1     -34.780 154.836   5.350  1.00  0.00    +0.029 A 
ATOM     17  C   UNL     1     -37.009 156.310   4.478  1.00  0.00    +0.079 A 
ATOM     18  C   UNL     1     -34.622 156.152   4.914  1.00  0.00    +0.057 A 
ATOM     19  C   UNL     1     -35.731 156.880   4.488  1.00  0.00    +0.147 A 
ATOM     20 Br   UNL     1     -33.225 153.914   5.935  1.00  0.00    -0.050 Br
ATOM     21  F   UNL     1     -35.541 158.169   4.175  1.00  0.00    -0.205 F 
BRANCH  17  22
ATOM     22  N   UNL     1     -38.171 157.005   4.075  1.00  0.00    -0.305 N 
ATOM     23  C   UNL     1     -38.300 157.687   2.871  1.00  0.00    +0.323 C 
ATOM     24  O   UNL     1     -37.527 157.575   1.929  1.00  0.00    -0.248 OA
ATOM     25  N   UNL     1     -39.452 158.456   2.894  1.00  0.00    -0.308 N 
ATOM     26  H   UNL     1     -39.048 156.688   4.460  1.00  0.00    +0.171 HD
ATOM     27  H   UNL     1     -39.817 158.650   3.814  1.00  0.00    +0.171 HD
BRANCH  25  28
ATOM     28  C   UNL     1     -40.015 159.193   1.832  1.00  0.00    +0.042 A 
ATOM     29  C   UNL     1     -39.266 159.928   0.913  1.00  0.00    +0.026 A 
ATOM     30  C   UNL     1     -41.409 159.154   1.692  1.00  0.00    +0.026 A 
ATOM     31  C   UNL     1     -39.899 160.622  -0.123  1.00  0.00    +0.002 A 
ATOM     32  C   UNL     1     -42.042 159.848   0.658  1.00  0.00    +0.002 A 
ATOM     33  C   UNL     1     -41.286 160.584  -0.250  1.00  0.00    +0.000 A 
ENDBRANCH  25  28
ENDBRANCH  17  22
ENDBRANCH   4  14
BRANCH   9  34
ATOM     34  N   UNL     1     -37.764 146.642   6.472  1.00  0.00    -0.373 N 
ATOM     35  C   UNL     1     -37.600 146.399   7.897  1.00  0.00    +0.141 C 
ATOM     36  H   UNL     1     -37.170 146.032   5.917  1.00  0.00    +0.161 HD
ENDBRANCH   9  34
TORSDOF 5
ENDMDL
MODEL 9
REMARK VINA RESULT:    -8.232      8.561     12.714
REMARK INTER + INTRA:         -11.315
REMARK INTER:                 -10.213
REMARK INTRA:                  -1.102
REMARK UNBOUND:                -0.677
REMARK SMILES CCn1c(=O)c(-c2cc(NC(=O)Nc3ccccc3)c(F)cc2Br)cc2cnc(NC)cc21
REMARK SMILES IDX 3 1 4 2 5 3 6 4 25 5 26 6 27 7 28 8 29 9 32 10 33 11 2 12
REMARK SMILES IDX 1 13 7 14 8 15 23 16 9 17 22 18 20 19 24 20 21 21 10 22
REMARK SMILES IDX 11 23 12 24 13 25 14 28 15 29 19 30 16 31 18 32 17 33 30 34
REMARK SMILES IDX 31 35
REMARK H PARENT 10 26 13 27 30 36
ROOT
ATOM      1  N   UNL     1     -37.155 148.189   2.003  1.00  0.00    -0.308 N 
ATOM      2  C   UNL     1     -37.085 148.786   3.265  1.00  0.00    +0.258 C 
ATOM      3  O   UNL     1     -38.060 149.282   3.832  1.00  0.00    -0.269 OA
ATOM      4  C   UNL     1     -35.747 148.822   3.939  1.00  0.00    +0.049 C 
ATOM      5  C   UNL     1     -34.651 148.368   3.313  1.00  0.00    +0.026 C 
ATOM      6  C   UNL     1     -34.751 147.808   1.973  1.00  0.00    +0.018 A 
ATOM      7  C   UNL     1     -33.629 147.339   1.304  1.00  0.00    +0.123 A 
ATOM      8  N   UNL     1     -33.651 146.813   0.060  1.00  0.00    -0.239 NA
ATOM      9  C   UNL     1     -34.836 146.742  -0.571  1.00  0.00    +0.127 A 
ATOM     10  C   UNL     1     -36.015 147.176   0.037  1.00  0.00    +0.073 A 
ATOM     11  C   UNL     1     -35.984 147.719   1.326  1.00  0.00    +0.056 A 
ENDROOT
BRANCH   1  12
ATOM     12  C   UNL     1     -38.470 148.125   1.367  1.00  0.00    +0.122 C 
ATOM     13  C   UNL     1     -39.271 146.914   1.822  1.00  0.00    +0.028 C 
ENDBRANCH   1  12
BRANCH   4  14
ATOM     14  C   UNL     1     -35.619 149.380   5.300  1.00  0.00    +0.004 A 
ATOM     15  C   UNL     1     -35.297 150.744   5.428  1.00  0.00    +0.039 A 
ATOM     16  C   UNL     1     -35.806 148.612   6.462  1.00  0.00    +0.029 A 
ATOM     17  C   UNL     1     -35.132 151.331   6.688  1.00  0.00    +0.079 A 
ATOM     18  C   UNL     1     -35.672 149.197   7.721  1.00  0.00    +0.057 A 
ATOM     19  C   UNL     1     -35.344 150.547   7.828  1.00  0.00    +0.147 A 
ATOM     20 Br   UNL     1     -36.275 146.771   6.396  1.00  0.00    -0.050 Br
ATOM     21  F   UNL     1     -35.327 151.084   9.055  1.00  0.00    -0.205 F 
BRANCH  17  22
ATOM     22  N   UNL     1     -34.816 152.707   6.736  1.00  0.00    -0.305 N 
ATOM     23  C   UNL     1     -35.668 153.724   6.321  1.00  0.00    +0.323 C 
ATOM     24  O   UNL     1     -36.860 153.572   6.090  1.00  0.00    -0.248 OA
ATOM     25  N   UNL     1     -34.971 154.920   6.266  1.00  0.00    -0.308 N 
ATOM     26  H   UNL     1     -34.144 152.996   7.431  1.00  0.00    +0.171 HD
ATOM     27  H   UNL     1     -33.968 154.827   6.217  1.00  0.00    +0.171 HD
BRANCH  25  28
ATOM     28  C   UNL     1     -35.491 156.207   6.020  1.00  0.00    +0.042 A 
ATOM     29  C   UNL     1     -35.977 157.053   7.017  1.00  0.00    +0.026 A 
ATOM     30  C   UNL     1     -35.491 156.655   4.692  1.00  0.00    +0.026 A 
ATOM     31  C   UNL     1     -36.465 158.324   6.693  1.00  0.00    +0.002 A 
ATOM     32  C   UNL     1     -35.979 157.924   4.367  1.00  0.00    +0.002 A 
ATOM     33  C   UNL     1     -36.467 158.758   5.369  1.00  0.00    +0.000 A 
ENDBRANCH  25  28
ENDBRANCH  17  22
ENDBRANCH   4  14
BRANCH   9  34
ATOM     34  N   UNL     1     -34.927 146.179  -1.857  1.00  0.00    -0.373 N 
ATOM     35  C   UNL     1     -33.714 145.517  -2.309  1.00  0.00    +0.141 C 
ATOM     36  H   UNL     1     -35.234 146.890  -2.514  1.00  0.00    +0.161 HD
ENDBRANCH   9  34
TORSDOF 5
ENDMDL
MODEL 10
REMARK VINA RESULT:    -7.945     10.009     12.656
REMARK INTER + INTRA:         -10.945
REMARK INTER:                  -9.948
REMARK INTRA:                  -0.996
REMARK UNBOUND:                -0.677
REMARK SMILES CCn1c(=O)c(-c2cc(NC(=O)Nc3ccccc3)c(F)cc2Br)cc2cnc(NC)cc21
REMARK SMILES IDX 3 1 4 2 5 3 6 4 25 5 26 6 27 7 28 8 29 9 32 10 33 11 2 12
REMARK SMILES IDX 1 13 7 14 8 15 23 16 9 17 22 18 20 19 24 20 21 21 10 22
REMARK SMILES IDX 11 23 12 24 13 25 14 28 15 29 19 30 16 31 18 32 17 33 30 34
REMARK SMILES IDX 31 35
REMARK H PARENT 10 26 13 27 30 36
ROOT
ATOM      1  N   UNL     1     -39.223 147.301   1.888  1.00  0.00    -0.308 N 
ATOM      2  C   UNL     1     -38.605 147.623   3.099  1.00  0.00    +0.258 C 
ATOM      3  O   UNL     1     -39.168 147.529   4.190  1.00  0.00    -0.269 OA
ATOM      4  C   UNL     1     -37.190 148.117   3.044  1.00  0.00    +0.049 C 
ATOM      5  C   UNL     1     -36.578 148.312   1.867  1.00  0.00    +0.026 C 
ATOM      6  C   UNL     1     -37.273 148.023   0.621  1.00  0.00    +0.018 A 
ATOM      7  C   UNL     1     -36.661 148.225  -0.608  1.00  0.00    +0.123 A 
ATOM      8  N   UNL     1     -37.250 147.983  -1.799  1.00  0.00    -0.239 NA
ATOM      9  C   UNL     1     -38.511 147.519  -1.794  1.00  0.00    +0.127 A 
ATOM     10  C   UNL     1     -39.193 147.273  -0.600  1.00  0.00    +0.073 A 
ATOM     11  C   UNL     1     -38.576 147.525   0.629  1.00  0.00    +0.056 A 
ENDROOT
BRANCH   1  12
ATOM     12  C   UNL     1     -40.590 146.788   1.951  1.00  0.00    +0.122 C 
ATOM     13  C   UNL     1     -40.629 145.271   2.075  1.00  0.00    +0.028 C 
ENDBRANCH   1  12
BRANCH   4  14
ATOM     14  C   UNL     1     -36.461 148.411   4.293  1.00  0.00    +0.004 A 
ATOM     15  C   UNL     1     -36.672 149.662   4.903  1.00  0.00    +0.039 A 
ATOM     16  C   UNL     1     -35.573 147.502   4.893  1.00  0.00    +0.029 A 
ATOM     17  C   UNL     1     -35.991 150.018   6.073  1.00  0.00    +0.079 A 
ATOM     18  C   UNL     1     -34.913 147.839   6.075  1.00  0.00    +0.057 A 
ATOM     19  C   UNL     1     -35.129 149.085   6.659  1.00  0.00    +0.147 A 
ATOM     20 Br   UNL     1     -35.244 145.777   4.167  1.00  0.00    -0.050 Br
ATOM     21  F   UNL     1     -34.550 149.320   7.845  1.00  0.00    -0.205 F 
BRANCH  17  22
ATOM     22  N   UNL     1     -36.262 151.288   6.630  1.00  0.00    -0.305 N 
ATOM     23  C   UNL     1     -35.627 152.464   6.250  1.00  0.00    +0.323 C 
ATOM     24  O   UNL     1     -34.939 152.582   5.244  1.00  0.00    -0.248 OA
ATOM     25  N   UNL     1     -35.938 153.472   7.148  1.00  0.00    -0.308 N 
ATOM     26  H   UNL     1     -37.184 151.429   7.016  1.00  0.00    +0.171 HD
ATOM     27  H   UNL     1     -36.277 153.155   8.044  1.00  0.00    +0.171 HD
BRANCH  25  28
ATOM     28  C   UNL     1     -35.607 154.839   7.055  1.00  0.00    +0.042 A 
ATOM     29  C   UNL     1     -34.300 155.326   7.085  1.00  0.00    +0.026 A 
ATOM     30  C   UNL     1     -36.664 155.746   6.899  1.00  0.00    +0.026 A 
ATOM     31  C   UNL     1     -34.052 156.698   6.972  1.00  0.00    +0.002 A 
ATOM     32  C   UNL     1     -36.417 157.117   6.788  1.00  0.00    +0.002 A 
ATOM     33  C   UNL     1     -35.109 157.593   6.825  1.00  0.00    +0.000 A 
ENDBRANCH  25  28
ENDBRANCH  17  22
ENDBRANCH   4  14
BRANCH   9  34
ATOM     34  N   UNL     1     -39.168 147.222  -3.001  1.00  0.00    -0.373 N 
ATOM     35  C   UNL     1     -40.447 146.550  -2.838  1.00  0.00    +0.141 C 
ATOM     36  H   UNL     1     -38.542 146.695  -3.603  1.00  0.00    +0.161 HD
ENDBRANCH   9  34
TORSDOF 5
ENDMDL
