REMARK SMILES COC(=O)c1ccc2c(c1)NC(=O)/C2=C(\Nc1ccc(N(C)C(=O)CN2CCN(C)CC2)cc1)c1ccccc1
REMARK SMILES IDX 17 1 18 2 19 3 20 4 33 5 34 6 16 7 15 9 5 10 6 11 10 12 7 13
REMARK SMILES IDX 9 14 8 15 11 16 14 17 12 18 13 19 3 21 4 22 2 23 1 24 35 25
REMARK SMILES IDX 36 26 40 27 37 28 39 29 38 30 21 31 22 32 23 33 24 34 25 35
REMARK SMILES IDX 26 36 27 37 32 38 28 39 31 40 29 41 30 42
REMARK H PARENT 16 8 11 20
ROOT
ATOM      1  C   UNL     1      -0.412  -0.513  -1.216  1.00  0.00    +0.039 A 
ATOM      2  C   UNL     1      -0.149  -1.826  -0.834  1.00  0.00    +0.028 A 
ATOM      3  C   UNL     1       1.043  -2.160  -0.175  1.00  0.00    +0.028 A 
ATOM      4  C   UNL     1       2.015  -1.191   0.127  1.00  0.00    +0.043 A 
ATOM      5  C   UNL     1       1.734   0.126  -0.254  1.00  0.00    +0.028 A 
ATOM      6  C   UNL     1       0.541   0.461  -0.913  1.00  0.00    +0.028 A 
ENDROOT
BRANCH   1   7
ATOM      7  N   UNL     1      -1.625  -0.137  -1.836  1.00  0.00    -0.354 N 
ATOM      8  H   UNL     1      -1.482   0.689  -2.430  1.00  0.00    +0.167 HD
BRANCH   7   9
ATOM      9  C   UNL     1      -2.878  -0.088  -1.207  1.00  0.00    +0.059 C 
ATOM     10  C   UNL     1      -7.771   2.084  -0.568  1.00  0.00    +0.062 A 
ATOM     11  C   UNL     1      -7.315   0.942   0.126  1.00  0.00    +0.016 A 
ATOM     12  C   UNL     1      -6.932   2.724  -1.488  1.00  0.00    +0.042 A 
ATOM     13  C   UNL     1      -6.026   0.429  -0.090  1.00  0.00    +0.012 A 
ATOM     14  C   UNL     1      -5.669   2.196  -1.679  1.00  0.00    +0.050 A 
ATOM     15  C   UNL     1      -5.199   1.064  -1.000  1.00  0.00    +0.013 A 
ATOM     16  N   UNL     1      -4.701   2.691  -2.544  1.00  0.00    -0.321 N 
ATOM     17  C   UNL     1      -3.825   0.837  -1.490  1.00  0.00    +0.073 C 
ATOM     18  C   UNL     1      -3.546   1.936  -2.489  1.00  0.00    +0.258 C 
ATOM     19  O   UNL     1      -2.513   2.127  -3.106  1.00  0.00    -0.269 OA
ATOM     20  H   UNL     1      -4.794   3.503  -3.136  1.00  0.00    +0.170 HD
BRANCH  10  21
ATOM     21  C   UNL     1      -9.132   2.650  -0.360  1.00  0.00    +0.337 C 
ATOM     22  O   UNL     1      -9.544   3.637  -0.949  1.00  0.00    -0.246 OA
BRANCH  21  23
ATOM     23  O   UNL     1      -9.820   1.924   0.555  1.00  0.00    -0.465 OA
ATOM     24  C   UNL     1     -11.140   2.410   0.807  1.00  0.00    +0.282 C 
ENDBRANCH  21  23
ENDBRANCH  10  21
BRANCH   9  25
ATOM     25  C   UNL     1      -3.182  -1.139  -0.212  1.00  0.00    -0.001 A 
ATOM     26  C   UNL     1      -2.904  -0.935   1.147  1.00  0.00    +0.010 A 
ATOM     27  C   UNL     1      -3.756  -2.351  -0.622  1.00  0.00    +0.010 A 
ATOM     28  C   UNL     1      -3.201  -1.928   2.082  1.00  0.00    +0.001 A 
ATOM     29  C   UNL     1      -4.053  -3.341   0.316  1.00  0.00    +0.001 A 
ATOM     30  C   UNL     1      -3.777  -3.128   1.666  1.00  0.00    +0.000 A 
ENDBRANCH   9  25
ENDBRANCH   7   9
ENDBRANCH   1   7
BRANCH   4  31
ATOM     31  N   UNL     1       3.230  -1.554   0.822  1.00  0.00    -0.314 N 
ATOM     32  C   UNL     1       3.202  -2.800   1.593  1.00  0.00    +0.153 C 
BRANCH  31  33
ATOM     33  C   UNL     1       4.423  -0.802   0.683  1.00  0.00    +0.240 C 
ATOM     34  O   UNL     1       4.511   0.231   0.015  1.00  0.00    -0.273 OA
BRANCH  33  35
ATOM     35  C   UNL     1       5.662  -1.366   1.425  1.00  0.00    +0.185 C 
BRANCH  35  36
ATOM     36  N   UNL     1       6.958  -0.752   1.081  1.00  0.00    -0.292 NA
ATOM     37  C   UNL     1       7.075   0.669   1.453  1.00  0.00    +0.100 C 
ATOM     38  C   UNL     1       7.383  -1.006  -0.302  1.00  0.00    +0.100 C 
ATOM     39  C   UNL     1       7.537   1.610   0.311  1.00  0.00    +0.099 C 
ATOM     40  C   UNL     1       8.738  -0.318  -0.588  1.00  0.00    +0.099 C 
ATOM     41  N   UNL     1       8.718   1.153  -0.446  1.00  0.00    -0.304 NA
ATOM     42  C   UNL     1       9.962   1.634   0.148  1.00  0.00    +0.105 C 
ENDBRANCH  35  36
ENDBRANCH  33  35
ENDBRANCH  31  33
ENDBRANCH   4  31
TORSDOF 9
