MODEL 1
REMARK VINA RESULT:    -6.495      0.000      0.000
REMARK INTER + INTRA:         -10.680
REMARK INTER:                  -9.913
REMARK INTRA:                  -0.767
REMARK UNBOUND:                -0.767
REMARK SMILES COC(=O)c1ccc2c(c1)NC(=O)/C2=C(\Nc1ccc(N(C)C(=O)CN2CCN(C)CC2)cc1)c1ccccc1
REMARK SMILES IDX 17 1 18 2 19 3 20 4 33 5 34 6 16 7 15 9 5 10 6 11 10 12 7 13
REMARK SMILES IDX 9 14 8 15 11 16 14 17 12 18 13 19 3 21 4 22 2 23 1 24 35 25
REMARK SMILES IDX 36 26 40 27 37 28 39 29 38 30 21 31 22 32 23 33 24 34 25 35
REMARK SMILES IDX 26 36 27 37 32 38 28 39 31 40 29 41 30 42
REMARK H PARENT 16 8 11 20
ROOT
ATOM      1  C   UNL     1      21.154  -6.720  12.205  1.00  0.00    +0.039 A 
ATOM      2  C   UNL     1      19.774  -6.780  12.028  1.00  0.00    +0.028 A 
ATOM      3  C   UNL     1      18.926  -7.130  13.088  1.00  0.00    +0.028 A 
ATOM      4  C   UNL     1      19.429  -7.432  14.366  1.00  0.00    +0.043 A 
ATOM      5  C   UNL     1      20.817  -7.358  14.532  1.00  0.00    +0.028 A 
ATOM      6  C   UNL     1      21.666  -7.007  13.471  1.00  0.00    +0.028 A 
ENDROOT
BRANCH   1   7
ATOM      7  N   UNL     1      22.030  -6.322  11.170  1.00  0.00    -0.354 N 
ATOM      8  H   UNL     1      22.258  -7.122  10.567  1.00  0.00    +0.167 HD
BRANCH   7   9
ATOM      9  C   UNL     1      23.142  -5.481  11.325  1.00  0.00    +0.059 C 
ATOM     10  C   UNL     1      25.321  -0.618  12.145  1.00  0.00    +0.062 A 
ATOM     11  C   UNL     1      26.067  -1.812  12.042  1.00  0.00    +0.016 A 
ATOM     12  C   UNL     1      23.926  -0.653  12.032  1.00  0.00    +0.042 A 
ATOM     13  C   UNL     1      25.433  -3.046  11.828  1.00  0.00    +0.012 A 
ATOM     14  C   UNL     1      23.330  -1.882  11.821  1.00  0.00    +0.050 A 
ATOM     15  C   UNL     1      24.054  -3.078  11.716  1.00  0.00    +0.013 A 
ATOM     16  N   UNL     1      21.968  -2.115  11.683  1.00  0.00    -0.321 N 
ATOM     17  C   UNL     1      23.053  -4.141  11.499  1.00  0.00    +0.073 C 
ATOM     18  C   UNL     1      21.707  -3.455  11.475  1.00  0.00    +0.258 C 
ATOM     19  O   UNL     1      20.618  -3.972  11.293  1.00  0.00    -0.269 OA
ATOM     20  H   UNL     1      21.241  -1.416  11.711  1.00  0.00    +0.170 HD
BRANCH  10  21
ATOM     21  C   UNL     1      25.965   0.705  12.372  1.00  0.00    +0.337 C 
ATOM     22  O   UNL     1      27.026   0.841  12.960  1.00  0.00    -0.246 OA
BRANCH  21  23
ATOM     23  O   UNL     1      25.215   1.702  11.843  1.00  0.00    -0.465 OA
ATOM     24  C   UNL     1      25.880   2.449  10.822  1.00  0.00    +0.282 C 
ENDBRANCH  21  23
ENDBRANCH  10  21
BRANCH   9  25
ATOM     25  C   UNL     1      24.478  -6.114  11.339  1.00  0.00    -0.001 A 
ATOM     26  C   UNL     1      25.470  -5.706  10.436  1.00  0.00    +0.010 A 
ATOM     27  C   UNL     1      24.765  -7.130  12.262  1.00  0.00    +0.010 A 
ATOM     28  C   UNL     1      26.732  -6.303  10.460  1.00  0.00    +0.001 A 
ATOM     29  C   UNL     1      26.028  -7.724  12.284  1.00  0.00    +0.001 A 
ATOM     30  C   UNL     1      27.010  -7.308  11.386  1.00  0.00    +0.000 A 
ENDBRANCH   9  25
ENDBRANCH   7   9
ENDBRANCH   1   7
BRANCH   4  31
ATOM     31  N   UNL     1      18.536  -7.774  15.450  1.00  0.00    -0.314 N 
ATOM     32  C   UNL     1      18.199  -9.192  15.605  1.00  0.00    +0.153 C 
BRANCH  31  33
ATOM     33  C   UNL     1      18.089  -6.806  16.384  1.00  0.00    +0.240 C 
ATOM     34  O   UNL     1      17.970  -7.020  17.592  1.00  0.00    -0.273 OA
BRANCH  33  35
ATOM     35  C   UNL     1      17.728  -5.420  15.791  1.00  0.00    +0.185 C 
BRANCH  35  36
ATOM     36  N   UNL     1      18.668  -4.323  16.089  1.00  0.00    -0.292 NA
ATOM     37  C   UNL     1      19.482  -3.892  14.940  1.00  0.00    +0.100 C 
ATOM     38  C   UNL     1      19.477  -4.551  17.295  1.00  0.00    +0.100 C 
ATOM     39  C   UNL     1      21.009  -3.841  15.199  1.00  0.00    +0.099 C 
ATOM     40  C   UNL     1      20.445  -3.368  17.529  1.00  0.00    +0.099 C 
ATOM     41  N   UNL     1      21.418  -3.150  16.437  1.00  0.00    -0.304 NA
ATOM     42  C   UNL     1      21.637  -1.724  16.215  1.00  0.00    +0.105 C 
ENDBRANCH  35  36
ENDBRANCH  33  35
ENDBRANCH  31  33
ENDBRANCH   4  31
TORSDOF 9
ENDMDL
MODEL 2
REMARK VINA RESULT:    -5.566      2.608      5.007
REMARK INTER + INTRA:          -9.262
REMARK INTER:                  -9.742
REMARK INTRA:                   0.480
REMARK UNBOUND:                -0.767
REMARK SMILES COC(=O)c1ccc2c(c1)NC(=O)/C2=C(\Nc1ccc(N(C)C(=O)CN2CCN(C)CC2)cc1)c1ccccc1
REMARK SMILES IDX 17 1 18 2 19 3 20 4 33 5 34 6 16 7 15 9 5 10 6 11 10 12 7 13
REMARK SMILES IDX 9 14 8 15 11 16 14 17 12 18 13 19 3 21 4 22 2 23 1 24 35 25
REMARK SMILES IDX 36 26 40 27 37 28 39 29 38 30 21 31 22 32 23 33 24 34 25 35
REMARK SMILES IDX 26 36 27 37 32 38 28 39 31 40 29 41 30 42
REMARK H PARENT 16 8 11 20
ROOT
ATOM      1  C   UNL     1      19.967  -5.295  13.406  1.00  0.00    +0.039 A 
ATOM      2  C   UNL     1      19.034  -4.301  13.124  1.00  0.00    +0.028 A 
ATOM      3  C   UNL     1      17.789  -4.619  12.562  1.00  0.00    +0.028 A 
ATOM      4  C   UNL     1      17.432  -5.945  12.264  1.00  0.00    +0.043 A 
ATOM      5  C   UNL     1      18.375  -6.936  12.562  1.00  0.00    +0.028 A 
ATOM      6  C   UNL     1      19.621  -6.618  13.124  1.00  0.00    +0.028 A 
ENDROOT
BRANCH   1   7
ATOM      7  N   UNL     1      21.209  -5.012  14.018  1.00  0.00    -0.354 N 
ATOM      8  H   UNL     1      21.301  -5.532  14.899  1.00  0.00    +0.167 HD
BRANCH   7   9
ATOM      9  C   UNL     1      21.789  -3.739  14.128  1.00  0.00    +0.059 C 
ATOM     10  C   UNL     1      24.389   0.477  11.998  1.00  0.00    +0.062 A 
ATOM     11  C   UNL     1      23.918   0.427  13.328  1.00  0.00    +0.016 A 
ATOM     12  C   UNL     1      24.191  -0.616  11.145  1.00  0.00    +0.042 A 
ATOM     13  C   UNL     1      23.247  -0.705  13.818  1.00  0.00    +0.012 A 
ATOM     14  C   UNL     1      23.528  -1.716  11.656  1.00  0.00    +0.050 A 
ATOM     15  C   UNL     1      23.053  -1.784  12.972  1.00  0.00    +0.013 A 
ATOM     16  N   UNL     1      23.241  -2.887  10.966  1.00  0.00    -0.321 N 
ATOM     17  C   UNL     1      22.414  -3.108  13.106  1.00  0.00    +0.073 C 
ATOM     18  C   UNL     1      22.576  -3.792  11.769  1.00  0.00    +0.258 C 
ATOM     19  O   UNL     1      22.210  -4.914  11.465  1.00  0.00    -0.269 OA
ATOM     20  H   UNL     1      23.488  -3.086  10.008  1.00  0.00    +0.170 HD
BRANCH  10  21
ATOM     21  C   UNL     1      25.103   1.663  11.452  1.00  0.00    +0.337 C 
ATOM     22  O   UNL     1      24.671   2.340  10.532  1.00  0.00    -0.246 OA
BRANCH  21  23
ATOM     23  O   UNL     1      26.270   1.868  12.111  1.00  0.00    -0.465 OA
ATOM     24  C   UNL     1      27.066   0.691  12.260  1.00  0.00    +0.282 C 
ENDBRANCH  21  23
ENDBRANCH  10  21
BRANCH   9  25
ATOM     25  C   UNL     1      21.664  -3.043  15.427  1.00  0.00    -0.001 A 
ATOM     26  C   UNL     1      21.630  -3.772  16.624  1.00  0.00    +0.010 A 
ATOM     27  C   UNL     1      21.581  -1.644  15.471  1.00  0.00    +0.010 A 
ATOM     28  C   UNL     1      21.520  -3.109  17.848  1.00  0.00    +0.001 A 
ATOM     29  C   UNL     1      21.473  -0.984  16.696  1.00  0.00    +0.001 A 
ATOM     30  C   UNL     1      21.444  -1.716  17.882  1.00  0.00    +0.000 A 
ENDBRANCH   9  25
ENDBRANCH   7   9
ENDBRANCH   1   7
BRANCH   4  31
ATOM     31  N   UNL     1      16.136  -6.254  11.701  1.00  0.00    -0.314 N 
ATOM     32  C   UNL     1      16.126  -6.993  10.436  1.00  0.00    +0.153 C 
BRANCH  31  33
ATOM     33  C   UNL     1      14.933  -5.951  12.386  1.00  0.00    +0.240 C 
ATOM     34  O   UNL     1      14.471  -4.813  12.494  1.00  0.00    -0.273 OA
BRANCH  33  35
ATOM     35  C   UNL     1      14.205  -7.159  13.029  1.00  0.00    +0.185 C 
BRANCH  35  36
ATOM     36  N   UNL     1      14.778  -7.664  14.291  1.00  0.00    -0.292 NA
ATOM     37  C   UNL     1      15.248  -6.611  15.208  1.00  0.00    +0.100 C 
ATOM     38  C   UNL     1      15.771  -8.729  14.103  1.00  0.00    +0.100 C 
ATOM     39  C   UNL     1      16.700  -6.790  15.722  1.00  0.00    +0.099 C 
ATOM     40  C   UNL     1      16.334  -9.192  15.467  1.00  0.00    +0.099 C 
ATOM     41  N   UNL     1      17.030  -8.135  16.231  1.00  0.00    -0.304 NA
ATOM     42  C   UNL     1      16.750  -8.257  17.659  1.00  0.00    +0.105 C 
ENDBRANCH  35  36
ENDBRANCH  33  35
ENDBRANCH  31  33
ENDBRANCH   4  31
TORSDOF 9
ENDMDL
MODEL 3
REMARK VINA RESULT:    -5.413      2.768      5.334
REMARK INTER + INTRA:          -9.029
REMARK INTER:                  -6.578
REMARK INTRA:                  -2.451
REMARK UNBOUND:                -0.767
REMARK SMILES COC(=O)c1ccc2c(c1)NC(=O)/C2=C(\Nc1ccc(N(C)C(=O)CN2CCN(C)CC2)cc1)c1ccccc1
REMARK SMILES IDX 17 1 18 2 19 3 20 4 33 5 34 6 16 7 15 9 5 10 6 11 10 12 7 13
REMARK SMILES IDX 9 14 8 15 11 16 14 17 12 18 13 19 3 21 4 22 2 23 1 24 35 25
REMARK SMILES IDX 36 26 40 27 37 28 39 29 38 30 21 31 22 32 23 33 24 34 25 35
REMARK SMILES IDX 26 36 27 37 32 38 28 39 31 40 29 41 30 42
REMARK H PARENT 16 8 11 20
ROOT
ATOM      1  C   UNL     1      19.682  -5.450  14.973  1.00  0.00    +0.039 A 
ATOM      2  C   UNL     1      19.125  -6.426  15.796  1.00  0.00    +0.028 A 
ATOM      3  C   UNL     1      17.752  -6.709  15.751  1.00  0.00    +0.028 A 
ATOM      4  C   UNL     1      16.887  -6.027  14.878  1.00  0.00    +0.043 A 
ATOM      5  C   UNL     1      17.461  -5.056  14.050  1.00  0.00    +0.028 A 
ATOM      6  C   UNL     1      18.835  -4.772  14.095  1.00  0.00    +0.028 A 
ENDROOT
BRANCH   1   7
ATOM      7  N   UNL     1      21.068  -5.177  14.960  1.00  0.00    -0.354 N 
ATOM      8  H   UNL     1      21.561  -5.793  15.619  1.00  0.00    +0.167 HD
BRANCH   7   9
ATOM      9  C   UNL     1      21.644  -3.898  14.948  1.00  0.00    +0.059 C 
ATOM     10  C   UNL     1      23.984   0.214  12.362  1.00  0.00    +0.062 A 
ATOM     11  C   UNL     1      23.646   0.230  13.733  1.00  0.00    +0.016 A 
ATOM     12  C   UNL     1      23.713  -0.921  11.589  1.00  0.00    +0.042 A 
ATOM     13  C   UNL     1      23.037  -0.878  14.343  1.00  0.00    +0.012 A 
ATOM     14  C   UNL     1      23.114  -1.996  12.217  1.00  0.00    +0.050 A 
ATOM     15  C   UNL     1      22.771  -1.999  13.576  1.00  0.00    +0.013 A 
ATOM     16  N   UNL     1      22.771  -3.203  11.619  1.00  0.00    -0.321 N 
ATOM     17  C   UNL     1      22.160  -3.317  13.839  1.00  0.00    +0.073 C 
ATOM     18  C   UNL     1      22.196  -4.068  12.528  1.00  0.00    +0.258 C 
ATOM     19  O   UNL     1      21.813  -5.206  12.320  1.00  0.00    -0.269 OA
ATOM     20  H   UNL     1      22.924  -3.450  10.652  1.00  0.00    +0.170 HD
BRANCH  10  21
ATOM     21  C   UNL     1      24.630   1.374  11.689  1.00  0.00    +0.337 C 
ATOM     22  O   UNL     1      24.127   2.486  11.642  1.00  0.00    -0.246 OA
BRANCH  21  23
ATOM     23  O   UNL     1      25.822   1.016  11.153  1.00  0.00    -0.465 OA
ATOM     24  C   UNL     1      26.868   0.863  12.115  1.00  0.00    +0.282 C 
ENDBRANCH  21  23
ENDBRANCH  10  21
BRANCH   9  25
ATOM     25  C   UNL     1      21.641  -3.137  16.216  1.00  0.00    -0.001 A 
ATOM     26  C   UNL     1      20.528  -2.367  16.582  1.00  0.00    +0.010 A 
ATOM     27  C   UNL     1      22.755  -3.184  17.067  1.00  0.00    +0.010 A 
ATOM     28  C   UNL     1      20.529  -1.658  17.784  1.00  0.00    +0.001 A 
ATOM     29  C   UNL     1      22.751  -2.475  18.269  1.00  0.00    +0.001 A 
ATOM     30  C   UNL     1      21.639  -1.715  18.627  1.00  0.00    +0.000 A 
ENDBRANCH   9  25
ENDBRANCH   7   9
ENDBRANCH   1   7
BRANCH   4  31
ATOM     31  N   UNL     1      15.477  -6.347  14.836  1.00  0.00    -0.314 N 
ATOM     32  C   UNL     1      14.804  -6.535  16.124  1.00  0.00    +0.153 C 
BRANCH  31  33
ATOM     33  C   UNL     1      14.754  -6.374  13.617  1.00  0.00    +0.240 C 
ATOM     34  O   UNL     1      14.197  -5.389  13.126  1.00  0.00    -0.273 OA
BRANCH  33  35
ATOM     35  C   UNL     1      14.681  -7.752  12.911  1.00  0.00    +0.185 C 
BRANCH  35  36
ATOM     36  N   UNL     1      15.816  -8.092  12.032  1.00  0.00    -0.292 NA
ATOM     37  C   UNL     1      16.853  -8.921  12.672  1.00  0.00    +0.100 C 
ATOM     38  C   UNL     1      16.380  -6.935  11.325  1.00  0.00    +0.100 C 
ATOM     39  C   UNL     1      18.299  -8.377  12.543  1.00  0.00    +0.099 C 
ATOM     40  C   UNL     1      17.572  -7.369  10.440  1.00  0.00    +0.099 C 
ATOM     41  N   UNL     1      18.701  -7.965  11.185  1.00  0.00    -0.304 NA
ATOM     42  C   UNL     1      19.291  -9.070  10.436  1.00  0.00    +0.105 C 
ENDBRANCH  35  36
ENDBRANCH  33  35
ENDBRANCH  31  33
ENDBRANCH   4  31
TORSDOF 9
ENDMDL
MODEL 4
REMARK VINA RESULT:    -4.134      2.588      4.776
REMARK INTER + INTRA:          -7.076
REMARK INTER:                  -5.490
REMARK INTRA:                  -1.586
REMARK UNBOUND:                -0.767
REMARK SMILES COC(=O)c1ccc2c(c1)NC(=O)/C2=C(\Nc1ccc(N(C)C(=O)CN2CCN(C)CC2)cc1)c1ccccc1
REMARK SMILES IDX 17 1 18 2 19 3 20 4 33 5 34 6 16 7 15 9 5 10 6 11 10 12 7 13
REMARK SMILES IDX 9 14 8 15 11 16 14 17 12 18 13 19 3 21 4 22 2 23 1 24 35 25
REMARK SMILES IDX 36 26 40 27 37 28 39 29 38 30 21 31 22 32 23 33 24 34 25 35
REMARK SMILES IDX 26 36 27 37 32 38 28 39 31 40 29 41 30 42
REMARK H PARENT 16 8 11 20
ROOT
ATOM      1  C   UNL     1      18.955  -4.627  14.211  1.00  0.00    +0.039 A 
ATOM      2  C   UNL     1      19.289  -5.897  13.747  1.00  0.00    +0.028 A 
ATOM      3  C   UNL     1      18.735  -7.046  14.330  1.00  0.00    +0.028 A 
ATOM      4  C   UNL     1      17.826  -6.966  15.398  1.00  0.00    +0.043 A 
ATOM      5  C   UNL     1      17.492  -5.684  15.849  1.00  0.00    +0.028 A 
ATOM      6  C   UNL     1      18.045  -4.533  15.265  1.00  0.00    +0.028 A 
ENDROOT
BRANCH   1   7
ATOM      7  N   UNL     1      19.457  -3.450  13.612  1.00  0.00    -0.354 N 
ATOM      8  H   UNL     1      19.121  -3.369  12.644  1.00  0.00    +0.167 HD
BRANCH   7   9
ATOM      9  C   UNL     1      20.774  -2.980  13.722  1.00  0.00    +0.059 C 
ATOM     10  C   UNL     1      25.489  -1.552  11.531  1.00  0.00    +0.062 A 
ATOM     11  C   UNL     1      25.190  -1.442  12.907  1.00  0.00    +0.016 A 
ATOM     12  C   UNL     1      24.530  -2.059  10.646  1.00  0.00    +0.042 A 
ATOM     13  C   UNL     1      23.939  -1.834  13.410  1.00  0.00    +0.012 A 
ATOM     14  C   UNL     1      23.309  -2.436  11.170  1.00  0.00    +0.050 A 
ATOM     15  C   UNL     1      22.993  -2.335  12.532  1.00  0.00    +0.013 A 
ATOM     16  N   UNL     1      22.240  -2.959  10.453  1.00  0.00    -0.321 N 
ATOM     17  C   UNL     1      21.610  -2.833  12.668  1.00  0.00    +0.073 C 
ATOM     18  C   UNL     1      21.170  -3.239  11.280  1.00  0.00    +0.258 C 
ATOM     19  O   UNL     1      20.100  -3.726  10.959  1.00  0.00    -0.269 OA
ATOM     20  H   UNL     1      22.223  -3.138   9.460  1.00  0.00    +0.170 HD
BRANCH  10  21
ATOM     21  C   UNL     1      26.806  -1.145  10.969  1.00  0.00    +0.337 C 
ATOM     22  O   UNL     1      27.578  -1.927  10.438  1.00  0.00    -0.246 OA
BRANCH  21  23
ATOM     23  O   UNL     1      27.008   0.185  11.133  1.00  0.00    -0.465 OA
ATOM     24  C   UNL     1      25.998   1.003  10.537  1.00  0.00    +0.282 C 
ENDBRANCH  21  23
ENDBRANCH  10  21
BRANCH   9  25
ATOM     25  C   UNL     1      21.247  -2.587  15.067  1.00  0.00    -0.001 A 
ATOM     26  C   UNL     1      21.329  -1.234  15.426  1.00  0.00    +0.010 A 
ATOM     27  C   UNL     1      21.614  -3.569  15.999  1.00  0.00    +0.010 A 
ATOM     28  C   UNL     1      21.768  -0.870  16.700  1.00  0.00    +0.001 A 
ATOM     29  C   UNL     1      22.050  -3.201  17.272  1.00  0.00    +0.001 A 
ATOM     30  C   UNL     1      22.125  -1.853  17.622  1.00  0.00    +0.000 A 
ENDBRANCH   9  25
ENDBRANCH   7   9
ENDBRANCH   1   7
BRANCH   4  31
ATOM     31  N   UNL     1      17.254  -8.163  15.974  1.00  0.00    -0.314 N 
ATOM     32  C   UNL     1      18.194  -9.192  16.425  1.00  0.00    +0.153 C 
BRANCH  31  33
ATOM     33  C   UNL     1      15.860  -8.295  16.191  1.00  0.00    +0.240 C 
ATOM     34  O   UNL     1      15.316  -8.135  17.286  1.00  0.00    -0.273 OA
BRANCH  33  35
ATOM     35  C   UNL     1      15.020  -8.677  14.945  1.00  0.00    +0.185 C 
BRANCH  35  36
ATOM     36  N   UNL     1      14.601  -7.560  14.078  1.00  0.00    -0.292 NA
ATOM     37  C   UNL     1      15.257  -7.535  12.759  1.00  0.00    +0.100 C 
ATOM     38  C   UNL     1      14.633  -6.252  14.745  1.00  0.00    +0.100 C 
ATOM     39  C   UNL     1      15.910  -6.182  12.376  1.00  0.00    +0.099 C 
ATOM     40  C   UNL     1      14.197  -5.135  13.768  1.00  0.00    +0.099 C 
ATOM     41  N   UNL     1      15.062  -4.992  12.578  1.00  0.00    -0.304 NA
ATOM     42  C   UNL     1      14.267  -4.685  11.393  1.00  0.00    +0.105 C 
ENDBRANCH  35  36
ENDBRANCH  33  35
ENDBRANCH  31  33
ENDBRANCH   4  31
TORSDOF 9
ENDMDL
MODEL 5
REMARK VINA RESULT:    -4.078      3.310      7.520
REMARK INTER + INTRA:          -6.991
REMARK INTER:                  -7.135
REMARK INTRA:                   0.145
REMARK UNBOUND:                -0.767
REMARK SMILES COC(=O)c1ccc2c(c1)NC(=O)/C2=C(\Nc1ccc(N(C)C(=O)CN2CCN(C)CC2)cc1)c1ccccc1
REMARK SMILES IDX 17 1 18 2 19 3 20 4 33 5 34 6 16 7 15 9 5 10 6 11 10 12 7 13
REMARK SMILES IDX 9 14 8 15 11 16 14 17 12 18 13 19 3 21 4 22 2 23 1 24 35 25
REMARK SMILES IDX 36 26 40 27 37 28 39 29 38 30 21 31 22 32 23 33 24 34 25 35
REMARK SMILES IDX 26 36 27 37 32 38 28 39 31 40 29 41 30 42
REMARK H PARENT 16 8 11 20
ROOT
ATOM      1  C   UNL     1      20.247  -5.105  13.754  1.00  0.00    +0.039 A 
ATOM      2  C   UNL     1      20.533  -6.289  14.428  1.00  0.00    +0.028 A 
ATOM      3  C   UNL     1      21.047  -7.401  13.745  1.00  0.00    +0.028 A 
ATOM      4  C   UNL     1      21.296  -7.366  12.362  1.00  0.00    +0.043 A 
ATOM      5  C   UNL     1      21.013  -6.166  11.699  1.00  0.00    +0.028 A 
ATOM      6  C   UNL     1      20.499  -5.054  12.382  1.00  0.00    +0.028 A 
ENDROOT
BRANCH   1   7
ATOM      7  N   UNL     1      19.775  -3.952  14.423  1.00  0.00    -0.354 N 
ATOM      8  H   UNL     1      19.263  -3.345  13.772  1.00  0.00    +0.167 HD
BRANCH   7   9
ATOM      9  C   UNL     1      20.509  -3.189  15.343  1.00  0.00    +0.059 C 
ATOM     10  C   UNL     1      21.934  -1.947  20.393  1.00  0.00    +0.062 A 
ATOM     11  C   UNL     1      22.490  -1.346  19.242  1.00  0.00    +0.016 A 
ATOM     12  C   UNL     1      20.947  -2.931  20.259  1.00  0.00    +0.042 A 
ATOM     13  C   UNL     1      22.071  -1.719  17.955  1.00  0.00    +0.012 A 
ATOM     14  C   UNL     1      20.555  -3.277  18.979  1.00  0.00    +0.050 A 
ATOM     15  C   UNL     1      21.096  -2.691  17.826  1.00  0.00    +0.013 A 
ATOM     16  N   UNL     1      19.595  -4.225  18.649  1.00  0.00    -0.321 N 
ATOM     17  C   UNL     1      20.415  -3.336  16.686  1.00  0.00    +0.073 C 
ATOM     18  C   UNL     1      19.436  -4.322  17.280  1.00  0.00    +0.258 C 
ATOM     19  O   UNL     1      18.657  -5.041  16.680  1.00  0.00    -0.269 OA
ATOM     20  H   UNL     1      19.056  -4.776  19.300  1.00  0.00    +0.170 HD
BRANCH  10  21
ATOM     21  C   UNL     1      22.358  -1.573  21.769  1.00  0.00    +0.337 C 
ATOM     22  O   UNL     1      21.589  -1.137  22.612  1.00  0.00    -0.246 OA
BRANCH  21  23
ATOM     23  O   UNL     1      23.686  -1.784  21.937  1.00  0.00    -0.465 OA
ATOM     24  C   UNL     1      24.455  -0.585  22.050  1.00  0.00    +0.282 C 
ENDBRANCH  21  23
ENDBRANCH  10  21
BRANCH   9  25
ATOM     25  C   UNL     1      21.467  -2.203  14.799  1.00  0.00    -0.001 A 
ATOM     26  C   UNL     1      21.624  -0.950  15.409  1.00  0.00    +0.010 A 
ATOM     27  C   UNL     1      22.231  -2.516  13.665  1.00  0.00    +0.010 A 
ATOM     28  C   UNL     1      22.536  -0.027  14.895  1.00  0.00    +0.001 A 
ATOM     29  C   UNL     1      23.143  -1.591  13.155  1.00  0.00    +0.001 A 
ATOM     30  C   UNL     1      23.296  -0.349  13.771  1.00  0.00    +0.000 A 
ENDBRANCH   9  25
ENDBRANCH   7   9
ENDBRANCH   1   7
BRANCH   4  31
ATOM     31  N   UNL     1      21.843  -8.518  11.680  1.00  0.00    -0.314 N 
ATOM     32  C   UNL     1      20.967  -9.192  10.718  1.00  0.00    +0.153 C 
BRANCH  31  33
ATOM     33  C   UNL     1      23.192  -8.917  11.851  1.00  0.00    +0.240 C 
ATOM     34  O   UNL     1      23.695  -9.190  12.944  1.00  0.00    -0.273 OA
BRANCH  33  35
ATOM     35  C   UNL     1      24.042  -8.982  10.556  1.00  0.00    +0.185 C 
BRANCH  35  36
ATOM     36  N   UNL     1      25.122  -7.985  10.440  1.00  0.00    -0.292 NA
ATOM     37  C   UNL     1      26.481  -8.552  10.502  1.00  0.00    +0.100 C 
ATOM     38  C   UNL     1      24.957  -6.828  11.331  1.00  0.00    +0.100 C 
ATOM     39  C   UNL     1      27.426  -7.881  11.532  1.00  0.00    +0.099 C 
ATOM     40  C   UNL     1      26.135  -5.841  11.161  1.00  0.00    +0.099 C 
ATOM     41  N   UNL     1      27.459  -6.407  11.493  1.00  0.00    -0.304 NA
ATOM     42  C   UNL     1      28.480  -5.912  10.574  1.00  0.00    +0.105 C 
ENDBRANCH  35  36
ENDBRANCH  33  35
ENDBRANCH  31  33
ENDBRANCH   4  31
TORSDOF 9
ENDMDL
MODEL 6
REMARK VINA RESULT:    -3.777      5.812      9.823
REMARK INTER + INTRA:          -6.532
REMARK INTER:                  -5.891
REMARK INTRA:                  -0.640
REMARK UNBOUND:                -0.767
REMARK SMILES COC(=O)c1ccc2c(c1)NC(=O)/C2=C(\Nc1ccc(N(C)C(=O)CN2CCN(C)CC2)cc1)c1ccccc1
REMARK SMILES IDX 17 1 18 2 19 3 20 4 33 5 34 6 16 7 15 9 5 10 6 11 10 12 7 13
REMARK SMILES IDX 9 14 8 15 11 16 14 17 12 18 13 19 3 21 4 22 2 23 1 24 35 25
REMARK SMILES IDX 36 26 40 27 37 28 39 29 38 30 21 31 22 32 23 33 24 34 25 35
REMARK SMILES IDX 26 36 27 37 32 38 28 39 31 40 29 41 30 42
REMARK H PARENT 16 8 11 20
ROOT
ATOM      1  C   UNL     1      21.469  -2.860  19.516  1.00  0.00    +0.039 A 
ATOM      2  C   UNL     1      22.808  -3.001  19.161  1.00  0.00    +0.028 A 
ATOM      3  C   UNL     1      23.823  -2.409  19.927  1.00  0.00    +0.028 A 
ATOM      4  C   UNL     1      23.534  -1.655  21.078  1.00  0.00    +0.043 A 
ATOM      5  C   UNL     1      22.185  -1.529  21.428  1.00  0.00    +0.028 A 
ATOM      6  C   UNL     1      21.169  -2.122  20.662  1.00  0.00    +0.028 A 
ENDROOT
BRANCH   1   7
ATOM      7  N   UNL     1      20.428  -3.486  18.793  1.00  0.00    -0.354 N 
ATOM      8  H   UNL     1      20.255  -4.430  19.160  1.00  0.00    +0.167 HD
BRANCH   7   9
ATOM      9  C   UNL     1      20.276  -3.458  17.399  1.00  0.00    +0.059 C 
ATOM     10  C   UNL     1      17.783  -5.012  12.878  1.00  0.00    +0.062 A 
ATOM     11  C   UNL     1      18.827  -4.061  12.920  1.00  0.00    +0.016 A 
ATOM     12  C   UNL     1      17.338  -5.614  14.061  1.00  0.00    +0.042 A 
ATOM     13  C   UNL     1      19.432  -3.702  14.135  1.00  0.00    +0.012 A 
ATOM     14  C   UNL     1      17.954  -5.241  15.241  1.00  0.00    +0.050 A 
ATOM     15  C   UNL     1      18.990  -4.299  15.303  1.00  0.00    +0.013 A 
ATOM     16  N   UNL     1      17.652  -5.727  16.507  1.00  0.00    -0.321 N 
ATOM     17  C   UNL     1      19.357  -4.191  16.728  1.00  0.00    +0.073 C 
ATOM     18  C   UNL     1      18.458  -5.154  17.470  1.00  0.00    +0.258 C 
ATOM     19  O   UNL     1      18.456  -5.389  18.665  1.00  0.00    -0.269 OA
ATOM     20  H   UNL     1      16.951  -6.420  16.724  1.00  0.00    +0.170 HD
BRANCH  10  21
ATOM     21  C   UNL     1      17.123  -5.411  11.605  1.00  0.00    +0.337 C 
ATOM     22  O   UNL     1      17.687  -5.390  10.522  1.00  0.00    -0.246 OA
BRANCH  21  23
ATOM     23  O   UNL     1      15.840  -5.789  11.827  1.00  0.00    -0.465 OA
ATOM     24  C   UNL     1      14.880  -5.060  11.060  1.00  0.00    +0.282 C 
ENDBRANCH  21  23
ENDBRANCH  10  21
BRANCH   9  25
ATOM     25  C   UNL     1      21.148  -2.538  16.637  1.00  0.00    -0.001 A 
ATOM     26  C   UNL     1      22.049  -3.035  15.685  1.00  0.00    +0.010 A 
ATOM     27  C   UNL     1      21.077  -1.155  16.860  1.00  0.00    +0.010 A 
ATOM     28  C   UNL     1      22.863  -2.160  14.964  1.00  0.00    +0.001 A 
ATOM     29  C   UNL     1      21.892  -0.283  16.136  1.00  0.00    +0.001 A 
ATOM     30  C   UNL     1      22.782  -0.786  15.188  1.00  0.00    +0.000 A 
ENDBRANCH   9  25
ENDBRANCH   7   9
ENDBRANCH   1   7
BRANCH   4  31
ATOM     31  N   UNL     1      24.596  -1.067  21.863  1.00  0.00    -0.314 N 
ATOM     32  C   UNL     1      25.577  -1.990  22.442  1.00  0.00    +0.153 C 
BRANCH  31  33
ATOM     33  C   UNL     1      24.748   0.337  21.982  1.00  0.00    +0.240 C 
ATOM     34  O   UNL     1      23.857   1.149  21.720  1.00  0.00    -0.273 OA
BRANCH  33  35
ATOM     35  C   UNL     1      26.140   0.823  22.461  1.00  0.00    +0.185 C 
BRANCH  35  36
ATOM     36  N   UNL     1      26.164   2.114  23.174  1.00  0.00    -0.292 NA
ATOM     37  C   UNL     1      26.519   3.268  22.329  1.00  0.00    +0.100 C 
ATOM     38  C   UNL     1      26.929   2.081  24.428  1.00  0.00    +0.100 C 
ATOM     39  C   UNL     1      27.663   4.157  22.881  1.00  0.00    +0.099 C 
ATOM     40  C   UNL     1      26.920   3.471  25.105  1.00  0.00    +0.099 C 
ATOM     41  N   UNL     1      27.534   4.547  24.298  1.00  0.00    -0.304 NA
ATOM     42  C   UNL     1      26.794   5.796  24.451  1.00  0.00    +0.105 C 
ENDBRANCH  35  36
ENDBRANCH  33  35
ENDBRANCH  31  33
ENDBRANCH   4  31
TORSDOF 9
ENDMDL
MODEL 7
REMARK VINA RESULT:    -2.338      3.725      7.246
REMARK INTER + INTRA:          -4.336
REMARK INTER:                  -3.400
REMARK INTRA:                  -0.936
REMARK UNBOUND:                -0.767
REMARK SMILES COC(=O)c1ccc2c(c1)NC(=O)/C2=C(\Nc1ccc(N(C)C(=O)CN2CCN(C)CC2)cc1)c1ccccc1
REMARK SMILES IDX 17 1 18 2 19 3 20 4 33 5 34 6 16 7 15 9 5 10 6 11 10 12 7 13
REMARK SMILES IDX 9 14 8 15 11 16 14 17 12 18 13 19 3 21 4 22 2 23 1 24 35 25
REMARK SMILES IDX 36 26 40 27 37 28 39 29 38 30 21 31 22 32 23 33 24 34 25 35
REMARK SMILES IDX 26 36 27 37 32 38 28 39 31 40 29 41 30 42
REMARK H PARENT 16 8 11 20
ROOT
ATOM      1  C   UNL     1      19.769  -4.714  14.658  1.00  0.00    +0.039 A 
ATOM      2  C   UNL     1      19.417  -4.226  13.402  1.00  0.00    +0.028 A 
ATOM      3  C   UNL     1      19.598  -5.004  12.250  1.00  0.00    +0.028 A 
ATOM      4  C   UNL     1      20.138  -6.300  12.312  1.00  0.00    +0.043 A 
ATOM      5  C   UNL     1      20.479  -6.781  13.581  1.00  0.00    +0.028 A 
ATOM      6  C   UNL     1      20.297  -6.004  14.735  1.00  0.00    +0.028 A 
ENDROOT
BRANCH   1   7
ATOM      7  N   UNL     1      19.552  -3.974  15.842  1.00  0.00    -0.354 N 
ATOM      8  H   UNL     1      18.651  -3.482  15.797  1.00  0.00    +0.167 HD
BRANCH   7   9
ATOM      9  C   UNL     1      20.514  -3.192  16.500  1.00  0.00    +0.059 C 
ATOM     10  C   UNL     1      22.973  -1.500  20.989  1.00  0.00    +0.062 A 
ATOM     11  C   UNL     1      23.356  -1.118  19.685  1.00  0.00    +0.016 A 
ATOM     12  C   UNL     1      21.892  -2.371  21.174  1.00  0.00    +0.042 A 
ATOM     13  C   UNL     1      22.669  -1.598  18.558  1.00  0.00    +0.012 A 
ATOM     14  C   UNL     1      21.236  -2.826  20.045  1.00  0.00    +0.050 A 
ATOM     15  C   UNL     1      21.601  -2.458  18.744  1.00  0.00    +0.013 A 
ATOM     16  N   UNL     1      20.148  -3.689  20.028  1.00  0.00    -0.321 N 
ATOM     17  C   UNL     1      20.661  -3.157  17.845  1.00  0.00    +0.073 C 
ATOM     18  C   UNL     1      19.725  -3.938  18.737  1.00  0.00    +0.258 C 
ATOM     19  O   UNL     1      18.784  -4.631  18.393  1.00  0.00    -0.269 OA
ATOM     20  H   UNL     1      19.693  -4.087  20.837  1.00  0.00    +0.170 HD
BRANCH  10  21
ATOM     21  C   UNL     1      23.682  -1.008  22.202  1.00  0.00    +0.337 C 
ATOM     22  O   UNL     1      23.106  -0.525  23.164  1.00  0.00    -0.246 OA
BRANCH  21  23
ATOM     23  O   UNL     1      25.022  -1.173  22.076  1.00  0.00    -0.465 OA
ATOM     24  C   UNL     1      25.772   0.033  22.235  1.00  0.00    +0.282 C 
ENDBRANCH  21  23
ENDBRANCH  10  21
BRANCH   9  25
ATOM     25  C   UNL     1      21.439  -2.401  15.659  1.00  0.00    -0.001 A 
ATOM     26  C   UNL     1      22.266  -3.034  14.721  1.00  0.00    +0.010 A 
ATOM     27  C   UNL     1      21.493  -1.006  15.793  1.00  0.00    +0.010 A 
ATOM     28  C   UNL     1      23.131  -2.281  13.925  1.00  0.00    +0.001 A 
ATOM     29  C   UNL     1      22.358  -0.256  14.995  1.00  0.00    +0.001 A 
ATOM     30  C   UNL     1      23.174  -0.894  14.061  1.00  0.00    +0.000 A 
ENDBRANCH   9  25
ENDBRANCH   7   9
ENDBRANCH   1   7
BRANCH   4  31
ATOM     31  N   UNL     1      20.301  -7.091  11.113  1.00  0.00    -0.314 N 
ATOM     32  C   UNL     1      21.597  -7.004  10.436  1.00  0.00    +0.153 C 
BRANCH  31  33
ATOM     33  C   UNL     1      19.299  -7.990  10.669  1.00  0.00    +0.240 C 
ATOM     34  O   UNL     1      19.494  -9.189  10.460  1.00  0.00    -0.273 OA
BRANCH  33  35
ATOM     35  C   UNL     1      17.897  -7.369  10.436  1.00  0.00    +0.185 C 
BRANCH  35  36
ATOM     36  N   UNL     1      16.885  -7.649  11.471  1.00  0.00    -0.292 NA
ATOM     37  C   UNL     1      16.266  -6.447  12.056  1.00  0.00    +0.100 C 
ATOM     38  C   UNL     1      17.334  -8.603  12.494  1.00  0.00    +0.100 C 
ATOM     39  C   UNL     1      16.283  -6.388  13.605  1.00  0.00    +0.099 C 
ATOM     40  C   UNL     1      16.225  -8.830  13.548  1.00  0.00    +0.099 C 
ATOM     41  N   UNL     1      15.829  -7.614  14.289  1.00  0.00    -0.304 NA
ATOM     42  C   UNL     1      14.389  -7.599  14.530  1.00  0.00    +0.105 C 
ENDBRANCH  35  36
ENDBRANCH  33  35
ENDBRANCH  31  33
ENDBRANCH   4  31
TORSDOF 9
ENDMDL
MODEL 8
REMARK VINA RESULT:    -1.932      5.654      9.651
REMARK INTER + INTRA:          -3.716
REMARK INTER:                  -3.314
REMARK INTRA:                  -0.402
REMARK UNBOUND:                -0.767
REMARK SMILES COC(=O)c1ccc2c(c1)NC(=O)/C2=C(\Nc1ccc(N(C)C(=O)CN2CCN(C)CC2)cc1)c1ccccc1
REMARK SMILES IDX 17 1 18 2 19 3 20 4 33 5 34 6 16 7 15 9 5 10 6 11 10 12 7 13
REMARK SMILES IDX 9 14 8 15 11 16 14 17 12 18 13 19 3 21 4 22 2 23 1 24 35 25
REMARK SMILES IDX 36 26 40 27 37 28 39 29 38 30 21 31 22 32 23 33 24 34 25 35
REMARK SMILES IDX 26 36 27 37 32 38 28 39 31 40 29 41 30 42
REMARK H PARENT 16 8 11 20
ROOT
ATOM      1  C   UNL     1      21.407  -2.924  19.385  1.00  0.00    +0.039 A 
ATOM      2  C   UNL     1      22.744  -2.940  18.996  1.00  0.00    +0.028 A 
ATOM      3  C   UNL     1      23.729  -2.318  19.775  1.00  0.00    +0.028 A 
ATOM      4  C   UNL     1      23.412  -1.657  20.975  1.00  0.00    +0.043 A 
ATOM      5  C   UNL     1      22.067  -1.656  21.359  1.00  0.00    +0.028 A 
ATOM      6  C   UNL     1      21.080  -2.279  20.579  1.00  0.00    +0.028 A 
ENDROOT
BRANCH   1   7
ATOM      7  N   UNL     1      20.399  -3.584  18.647  1.00  0.00    -0.354 N 
ATOM      8  H   UNL     1      20.281  -4.547  18.985  1.00  0.00    +0.167 HD
BRANCH   7   9
ATOM      9  C   UNL     1      20.237  -3.521  17.255  1.00  0.00    +0.059 C 
ATOM     10  C   UNL     1      17.665  -4.899  12.722  1.00  0.00    +0.062 A 
ATOM     11  C   UNL     1      18.737  -3.982  12.776  1.00  0.00    +0.016 A 
ATOM     12  C   UNL     1      17.210  -5.513  13.895  1.00  0.00    +0.042 A 
ATOM     13  C   UNL     1      19.362  -3.669  13.993  1.00  0.00    +0.012 A 
ATOM     14  C   UNL     1      17.845  -5.185  15.078  1.00  0.00    +0.050 A 
ATOM     15  C   UNL     1      18.910  -4.277  15.151  1.00  0.00    +0.013 A 
ATOM     16  N   UNL     1      17.537  -5.689  16.335  1.00  0.00    -0.321 N 
ATOM     17  C   UNL     1      19.291  -4.211  16.576  1.00  0.00    +0.073 C 
ATOM     18  C   UNL     1      18.369  -5.162  17.304  1.00  0.00    +0.258 C 
ATOM     19  O   UNL     1      18.368  -5.423  18.494  1.00  0.00    -0.269 OA
ATOM     20  H   UNL     1      16.817  -6.364  16.543  1.00  0.00    +0.170 HD
BRANCH  10  21
ATOM     21  C   UNL     1      16.983  -5.251  11.446  1.00  0.00    +0.337 C 
ATOM     22  O   UNL     1      15.804  -5.018  11.231  1.00  0.00    -0.246 OA
BRANCH  21  23
ATOM     23  O   UNL     1      17.845  -5.850  10.588  1.00  0.00    -0.465 OA
ATOM     24  C   UNL     1      18.157  -7.202  10.930  1.00  0.00    +0.282 C 
ENDBRANCH  21  23
ENDBRANCH  10  21
BRANCH   9  25
ATOM     25  C   UNL     1      21.132  -2.612  16.506  1.00  0.00    -0.001 A 
ATOM     26  C   UNL     1      22.053  -3.122  15.580  1.00  0.00    +0.010 A 
ATOM     27  C   UNL     1      21.063  -1.227  16.716  1.00  0.00    +0.010 A 
ATOM     28  C   UNL     1      22.888  -2.258  14.870  1.00  0.00    +0.001 A 
ATOM     29  C   UNL     1      21.899  -0.366  16.003  1.00  0.00    +0.001 A 
ATOM     30  C   UNL     1      22.809  -0.882  15.081  1.00  0.00    +0.000 A 
ENDBRANCH   9  25
ENDBRANCH   7   9
ENDBRANCH   1   7
BRANCH   4  31
ATOM     31  N   UNL     1      24.446  -1.036  21.772  1.00  0.00    -0.314 N 
ATOM     32  C   UNL     1      25.691  -1.791  21.944  1.00  0.00    +0.153 C 
BRANCH  31  33
ATOM     33  C   UNL     1      24.310   0.281  22.277  1.00  0.00    +0.240 C 
ATOM     34  O   UNL     1      23.562   0.586  23.209  1.00  0.00    -0.273 OA
BRANCH  33  35
ATOM     35  C   UNL     1      25.165   1.363  21.569  1.00  0.00    +0.185 C 
BRANCH  35  36
ATOM     36  N   UNL     1      26.261   1.946  22.366  1.00  0.00    -0.292 NA
ATOM     37  C   UNL     1      26.338   1.448  23.750  1.00  0.00    +0.100 C 
ATOM     38  C   UNL     1      26.329   3.412  22.293  1.00  0.00    +0.100 C 
ATOM     39  C   UNL     1      26.392   2.548  24.841  1.00  0.00    +0.099 C 
ATOM     40  C   UNL     1      27.489   3.945  23.165  1.00  0.00    +0.099 C 
ATOM     41  N   UNL     1      27.369   3.627  24.603  1.00  0.00    -0.304 NA
ATOM     42  C   UNL     1      28.674   3.312  25.176  1.00  0.00    +0.105 C 
ENDBRANCH  35  36
ENDBRANCH  33  35
ENDBRANCH  31  33
ENDBRANCH   4  31
TORSDOF 9
ENDMDL
MODEL 9
REMARK VINA RESULT:    -1.770      4.385      6.324
REMARK INTER + INTRA:          -3.468
REMARK INTER:                  -6.291
REMARK INTRA:                   2.823
REMARK UNBOUND:                -0.767
REMARK SMILES COC(=O)c1ccc2c(c1)NC(=O)/C2=C(\Nc1ccc(N(C)C(=O)CN2CCN(C)CC2)cc1)c1ccccc1
REMARK SMILES IDX 17 1 18 2 19 3 20 4 33 5 34 6 16 7 15 9 5 10 6 11 10 12 7 13
REMARK SMILES IDX 9 14 8 15 11 16 14 17 12 18 13 19 3 21 4 22 2 23 1 24 35 25
REMARK SMILES IDX 36 26 40 27 37 28 39 29 38 30 21 31 22 32 23 33 24 34 25 35
REMARK SMILES IDX 26 36 27 37 32 38 28 39 31 40 29 41 30 42
REMARK H PARENT 16 8 11 20
ROOT
ATOM      1  C   UNL     1      20.704  -3.273  17.011  1.00  0.00    +0.039 A 
ATOM      2  C   UNL     1      19.818  -3.550  18.049  1.00  0.00    +0.028 A 
ATOM      3  C   UNL     1      20.195  -3.365  19.387  1.00  0.00    +0.028 A 
ATOM      4  C   UNL     1      21.473  -2.895  19.735  1.00  0.00    +0.043 A 
ATOM      5  C   UNL     1      22.351  -2.612  18.682  1.00  0.00    +0.028 A 
ATOM      6  C   UNL     1      21.974  -2.796  17.342  1.00  0.00    +0.028 A 
ENDROOT
BRANCH   1   7
ATOM      7  N   UNL     1      20.337  -3.402  15.652  1.00  0.00    -0.354 N 
ATOM      8  H   UNL     1      19.643  -4.151  15.539  1.00  0.00    +0.167 HD
BRANCH   7   9
ATOM      9  C   UNL     1      21.223  -3.373  14.565  1.00  0.00    +0.059 C 
ATOM     10  C   UNL     1      25.012  -0.928  11.610  1.00  0.00    +0.062 A 
ATOM     11  C   UNL     1      24.544  -2.238  11.370  1.00  0.00    +0.016 A 
ATOM     12  C   UNL     1      24.485  -0.181  12.670  1.00  0.00    +0.042 A 
ATOM     13  C   UNL     1      23.553  -2.814  12.181  1.00  0.00    +0.012 A 
ATOM     14  C   UNL     1      23.511  -0.775  13.451  1.00  0.00    +0.050 A 
ATOM     15  C   UNL     1      23.034  -2.073  13.229  1.00  0.00    +0.013 A 
ATOM     16  N   UNL     1      22.873  -0.194  14.540  1.00  0.00    -0.321 N 
ATOM     17  C   UNL     1      22.019  -2.318  14.272  1.00  0.00    +0.073 C 
ATOM     18  C   UNL     1      21.945  -1.053  15.094  1.00  0.00    +0.258 C 
ATOM     19  O   UNL     1      21.210  -0.830  16.040  1.00  0.00    -0.269 OA
ATOM     20  H   UNL     1      23.034   0.738  14.894  1.00  0.00    +0.170 HD
BRANCH  10  21
ATOM     21  C   UNL     1      26.061  -0.291  10.767  1.00  0.00    +0.337 C 
ATOM     22  O   UNL     1      27.090  -0.859  10.436  1.00  0.00    -0.246 OA
BRANCH  21  23
ATOM     23  O   UNL     1      25.709   0.975  10.436  1.00  0.00    -0.465 OA
ATOM     24  C   UNL     1      26.056   1.950  11.421  1.00  0.00    +0.282 C 
ENDBRANCH  21  23
ENDBRANCH  10  21
BRANCH   9  25
ATOM     25  C   UNL     1      21.312  -4.589  13.727  1.00  0.00    -0.001 A 
ATOM     26  C   UNL     1      21.027  -4.531  12.356  1.00  0.00    +0.010 A 
ATOM     27  C   UNL     1      21.687  -5.812  14.301  1.00  0.00    +0.010 A 
ATOM     28  C   UNL     1      21.121  -5.680  11.569  1.00  0.00    +0.001 A 
ATOM     29  C   UNL     1      21.781  -6.959  13.511  1.00  0.00    +0.001 A 
ATOM     30  C   UNL     1      21.500  -6.892  12.147  1.00  0.00    +0.000 A 
ENDBRANCH   9  25
ENDBRANCH   7   9
ENDBRANCH   1   7
BRANCH   4  31
ATOM     31  N   UNL     1      21.836  -2.695  21.120  1.00  0.00    -0.314 N 
ATOM     32  C   UNL     1      21.704  -3.852  22.010  1.00  0.00    +0.153 C 
BRANCH  31  33
ATOM     33  C   UNL     1      22.392  -1.475  21.578  1.00  0.00    +0.240 C 
ATOM     34  O   UNL     1      21.739  -0.586  22.130  1.00  0.00    -0.273 OA
BRANCH  33  35
ATOM     35  C   UNL     1      23.912  -1.296  21.333  1.00  0.00    +0.185 C 
BRANCH  35  36
ATOM     36  N   UNL     1      24.597  -0.315  22.196  1.00  0.00    -0.292 NA
ATOM     37  C   UNL     1      24.404   1.089  21.791  1.00  0.00    +0.100 C 
ATOM     38  C   UNL     1      26.007  -0.636  22.451  1.00  0.00    +0.100 C 
ATOM     39  C   UNL     1      25.709   1.912  21.639  1.00  0.00    +0.099 C 
ATOM     40  C   UNL     1      26.656   0.444  23.347  1.00  0.00    +0.099 C 
ATOM     41  N   UNL     1      26.661   1.801  22.761  1.00  0.00    -0.304 NA
ATOM     42  C   UNL     1      26.411   2.810  23.786  1.00  0.00    +0.105 C 
ENDBRANCH  35  36
ENDBRANCH  33  35
ENDBRANCH  31  33
ENDBRANCH   4  31
TORSDOF 9
ENDMDL
