REMARK SMILES Cc1ccc(Nc2nccc(N(C)c3ccc4c(C)n(C)nc4c3)n2)cc1S(N)(=O)=O
REMARK SMILES IDX 6 1 5 3 2 4 3 5 27 6 4 7 26 8 1 9 28 10 30 11 31 12 29 13
REMARK SMILES IDX 7 16 8 17 25 18 9 19 11 20 10 21 12 22 13 23 14 24 15 25
REMARK SMILES IDX 24 26 16 27 23 28 17 29 22 30 18 31 20 32 19 33 21 34
REMARK H PARENT 6 2 29 14 29 15
ROOT
ATOM      1  N   UNL     1      -1.567  -0.059   0.290  1.00  0.00    -0.324 N 
ATOM      2  H   UNL     1      -0.704  -0.574   0.403  1.00  0.00    +0.170 HD
ENDROOT
BRANCH   1   3
ATOM      3  C   UNL     1      -2.757  -0.717   0.610  1.00  0.00    +0.042 A 
ATOM      4  C   UNL     1      -5.107  -2.126   1.409  1.00  0.00    -0.031 A 
ATOM      5  C   UNL     1      -3.830  -2.636   1.677  1.00  0.00    +0.007 A 
ATOM      6  C   UNL     1      -5.193  -0.901   0.725  1.00  0.00    +0.087 A 
ATOM      7  C   UNL     1      -2.680  -1.939   1.291  1.00  0.00    +0.026 A 
ATOM      8  C   UNL     1      -4.029  -0.210   0.338  1.00  0.00    +0.048 A 
ATOM      9  C   UNL     1      -6.299  -2.932   1.843  1.00  0.00    +0.046 C 
BRANCH   6  10
ATOM     10  S   UNL     1      -6.758  -0.150   0.310  1.00  0.00    +0.238 S 
ATOM     11  O   UNL     1      -7.739  -1.183   0.070  1.00  0.00    -0.207 OA
ATOM     12  O   UNL     1      -6.539   0.921  -0.634  1.00  0.00    -0.207 OA
BRANCH  10  13
ATOM     13  N   UNL     1      -7.182   0.563   1.778  1.00  0.00    -0.225 NA
ATOM     14  H   UNL     1      -6.409   0.596   2.441  1.00  0.00    +0.137 HD
ATOM     15  H   UNL     1      -8.007   0.094   2.153  1.00  0.00    +0.137 HD
ENDBRANCH  10  13
ENDBRANCH   6  10
ENDBRANCH   1   3
BRANCH   1  16
ATOM     16  C   UNL     1      -1.266   1.154  -0.324  1.00  0.00    +0.229 A 
ATOM     17  N   UNL     1      -2.209   2.043  -0.639  1.00  0.00    -0.221 NA
ATOM     18  N   UNL     1       0.039   1.354  -0.560  1.00  0.00    -0.195 NA
ATOM     19  C   UNL     1      -1.798   3.169  -1.237  1.00  0.00    +0.119 A 
ATOM     20  C   UNL     1       0.453   2.488  -1.165  1.00  0.00    +0.138 A 
ATOM     21  C   UNL     1      -0.481   3.442  -1.522  1.00  0.00    +0.067 A 
BRANCH  20  22
ATOM     22  N   UNL     1       1.838   2.659  -1.391  1.00  0.00    -0.329 N 
ATOM     23  C   UNL     1       2.331   3.963  -1.832  1.00  0.00    +0.152 C 
BRANCH  22  24
ATOM     24  C   UNL     1       2.843   1.708  -1.039  1.00  0.00    +0.044 A 
ATOM     25  C   UNL     1       3.995   2.122  -0.273  1.00  0.00    +0.027 A 
ATOM     26  C   UNL     1       2.683   0.355  -1.445  1.00  0.00    +0.057 A 
ATOM     27  C   UNL     1       5.051   1.274   0.131  1.00  0.00    +0.014 A 
ATOM     28  C   UNL     1       3.716  -0.513  -1.056  1.00  0.00    +0.095 A 
ATOM     29  C   UNL     1       4.842  -0.030  -0.299  1.00  0.00    +0.023 A 
ATOM     30  N   UNL     1       3.867  -1.828  -1.280  1.00  0.00    -0.173 NA
ATOM     31  C   UNL     1       5.675  -1.100  -0.076  1.00  0.00    +0.043 A 
ATOM     32  N   UNL     1       5.031  -2.153  -0.683  1.00  0.00    -0.272 N 
ATOM     33  C   UNL     1       6.971  -1.241   0.630  1.00  0.00    +0.067 C 
ATOM     34  C   UNL     1       5.483  -3.524  -0.744  1.00  0.00    +0.174 C 
ENDBRANCH  22  24
ENDBRANCH  20  22
ENDBRANCH   1  16
TORSDOF 6
