MODEL 1
REMARK VINA RESULT:   -11.021      0.000      0.000
REMARK INTER + INTRA:         -14.675
REMARK INTER:                 -14.565
REMARK INTRA:                  -0.110
REMARK UNBOUND:                -0.110
REMARK SMILES Cc1ccc(Nc2nccc(N(C)c3ccc4c(C)n(C)nc4c3)n2)cc1S(N)(=O)=O
REMARK SMILES IDX 6 1 5 3 2 4 3 5 27 6 4 7 26 8 1 9 28 10 30 11 31 12 29 13
REMARK SMILES IDX 7 16 8 17 25 18 9 19 11 20 10 21 12 22 13 23 14 24 15 25
REMARK SMILES IDX 24 26 16 27 23 28 17 29 22 30 18 31 20 32 19 33 21 34
REMARK H PARENT 6 2 29 14 29 15
ROOT
ATOM      1  N   UNL     1     -38.570 156.856   2.851  1.00  0.00    -0.324 N 
ATOM      2  H   UNL     1     -39.027 155.970   2.681  1.00  0.00    +0.170 HD
ENDROOT
BRANCH   1   3
ATOM      3  C   UNL     1     -37.540 156.880   3.794  1.00  0.00    +0.042 A 
ATOM      4  C   UNL     1     -35.511 157.077   5.792  1.00  0.00    -0.031 A 
ATOM      5  C   UNL     1     -36.112 158.222   5.254  1.00  0.00    +0.007 A 
ATOM      6  C   UNL     1     -35.934 155.827   5.308  1.00  0.00    +0.087 A 
ATOM      7  C   UNL     1     -37.112 158.122   4.281  1.00  0.00    +0.026 A 
ATOM      8  C   UNL     1     -36.939 155.738   4.326  1.00  0.00    +0.048 A 
ATOM      9  C   UNL     1     -34.436 157.258   6.827  1.00  0.00    +0.046 C 
BRANCH   6  10
ATOM     10  S   UNL     1     -35.240 154.292   5.899  1.00  0.00    +0.238 S 
ATOM     11  O   UNL     1     -35.530 154.143   7.307  1.00  0.00    -0.207 OA
ATOM     12  O   UNL     1     -33.900 154.143   5.381  1.00  0.00    -0.207 OA
BRANCH  10  13
ATOM     13  N   UNL     1     -36.207 153.164   5.103  1.00  0.00    -0.225 NA
ATOM     14  H   UNL     1     -36.013 153.109   4.104  1.00  0.00    +0.137 HD
ATOM     15  H   UNL     1     -37.188 153.359   5.306  1.00  0.00    +0.137 HD
ENDBRANCH  10  13
ENDBRANCH   6  10
ENDBRANCH   1   3
BRANCH   1  16
ATOM     16  C   UNL     1     -39.265 157.839   2.150  1.00  0.00    +0.229 A 
ATOM     17  N   UNL     1     -40.173 158.620   2.736  1.00  0.00    -0.221 NA
ATOM     18  N   UNL     1     -38.940 157.937   0.852  1.00  0.00    -0.195 NA
ATOM     19  C   UNL     1     -40.784 159.522   1.956  1.00  0.00    +0.119 A 
ATOM     20  C   UNL     1     -39.558 158.844   0.066  1.00  0.00    +0.138 A 
ATOM     21  C   UNL     1     -40.514 159.676   0.617  1.00  0.00    +0.067 A 
BRANCH  20  22
ATOM     22  N   UNL     1     -39.182 158.917  -1.295  1.00  0.00    -0.329 N 
ATOM     23  C   UNL     1     -39.076 157.681  -2.070  1.00  0.00    +0.152 C 
BRANCH  22  24
ATOM     24  C   UNL     1     -39.078 160.126  -2.047  1.00  0.00    +0.044 A 
ATOM     25  C   UNL     1     -39.254 161.402  -1.394  1.00  0.00    +0.027 A 
ATOM     26  C   UNL     1     -38.789 160.049  -3.437  1.00  0.00    +0.057 A 
ATOM     27  C   UNL     1     -39.176 162.660  -2.033  1.00  0.00    +0.014 A 
ATOM     28  C   UNL     1     -38.703 161.285  -4.100  1.00  0.00    +0.095 A 
ATOM     29  C   UNL     1     -38.899 162.521  -3.387  1.00  0.00    +0.023 A 
ATOM     30  N   UNL     1     -38.453 161.555  -5.391  1.00  0.00    -0.173 NA
ATOM     31  C   UNL     1     -38.758 163.543  -4.295  1.00  0.00    +0.043 A 
ATOM     32  N   UNL     1     -38.484 162.900  -5.479  1.00  0.00    -0.272 N 
ATOM     33  C   UNL     1     -38.844 165.019  -4.175  1.00  0.00    +0.067 C 
ATOM     34  C   UNL     1     -38.246 163.516  -6.763  1.00  0.00    +0.174 C 
ENDBRANCH  22  24
ENDBRANCH  20  22
ENDBRANCH   1  16
TORSDOF 6
ENDMDL
MODEL 2
REMARK VINA RESULT:   -10.634      1.458      1.783
REMARK INTER + INTRA:         -14.163
REMARK INTER:                 -13.710
REMARK INTRA:                  -0.453
REMARK UNBOUND:                -0.110
REMARK SMILES Cc1ccc(Nc2nccc(N(C)c3ccc4c(C)n(C)nc4c3)n2)cc1S(N)(=O)=O
REMARK SMILES IDX 6 1 5 3 2 4 3 5 27 6 4 7 26 8 1 9 28 10 30 11 31 12 29 13
REMARK SMILES IDX 7 16 8 17 25 18 9 19 11 20 10 21 12 22 13 23 14 24 15 25
REMARK SMILES IDX 24 26 16 27 23 28 17 29 22 30 18 31 20 32 19 33 21 34
REMARK H PARENT 6 2 29 14 29 15
ROOT
ATOM      1  N   UNL     1     -37.463 158.406   2.687  1.00  0.00    -0.324 N 
ATOM      2  H   UNL     1     -36.719 158.953   2.275  1.00  0.00    +0.170 HD
ENDROOT
BRANCH   1   3
ATOM      3  C   UNL     1     -37.114 157.495   3.688  1.00  0.00    +0.042 A 
ATOM      4  C   UNL     1     -36.507 155.516   5.652  1.00  0.00    -0.031 A 
ATOM      5  C   UNL     1     -37.768 155.570   5.044  1.00  0.00    +0.007 A 
ATOM      6  C   UNL     1     -35.553 156.474   5.269  1.00  0.00    +0.087 A 
ATOM      7  C   UNL     1     -38.060 156.537   4.075  1.00  0.00    +0.026 A 
ATOM      8  C   UNL     1     -35.859 157.445   4.297  1.00  0.00    +0.048 A 
ATOM      9  C   UNL     1     -36.266 154.457   6.691  1.00  0.00    +0.046 C 
BRANCH   6  10
ATOM     10  S   UNL     1     -33.915 156.523   5.978  1.00  0.00    +0.238 S 
ATOM     11  O   UNL     1     -33.249 155.264   5.737  1.00  0.00    -0.207 OA
ATOM     12  O   UNL     1     -33.983 157.105   7.298  1.00  0.00    -0.207 OA
BRANCH  10  13
ATOM     13  N   UNL     1     -33.157 157.649   4.978  1.00  0.00    -0.225 NA
ATOM     14  H   UNL     1     -32.143 157.551   4.968  1.00  0.00    +0.137 HD
ATOM     15  H   UNL     1     -33.462 158.588   5.238  1.00  0.00    +0.137 HD
ENDBRANCH  10  13
ENDBRANCH   6  10
ENDBRANCH   1   3
BRANCH   1  16
ATOM     16  C   UNL     1     -38.630 158.656   1.970  1.00  0.00    +0.229 A 
ATOM     17  N   UNL     1     -39.805 158.845   2.571  1.00  0.00    -0.221 NA
ATOM     18  N   UNL     1     -38.471 158.701   0.639  1.00  0.00    -0.195 NA
ATOM     19  C   UNL     1     -40.859 159.067   1.774  1.00  0.00    +0.119 A 
ATOM     20  C   UNL     1     -39.533 158.922  -0.164  1.00  0.00    +0.138 A 
ATOM     21  C   UNL     1     -40.779 159.116   0.402  1.00  0.00    +0.067 A 
BRANCH  20  22
ATOM     22  N   UNL     1     -39.319 158.964  -1.561  1.00  0.00    -0.329 N 
ATOM     23  C   UNL     1     -39.454 157.734  -2.339  1.00  0.00    +0.152 C 
BRANCH  22  24
ATOM     24  C   UNL     1     -39.166 160.161  -2.324  1.00  0.00    +0.044 A 
ATOM     25  C   UNL     1     -39.273 161.449  -1.680  1.00  0.00    +0.027 A 
ATOM     26  C   UNL     1     -38.897 160.060  -3.717  1.00  0.00    +0.057 A 
ATOM     27  C   UNL     1     -39.142 162.697  -2.331  1.00  0.00    +0.014 A 
ATOM     28  C   UNL     1     -38.760 161.285  -4.390  1.00  0.00    +0.095 A 
ATOM     29  C   UNL     1     -38.888 162.534  -3.686  1.00  0.00    +0.023 A 
ATOM     30  N   UNL     1     -38.512 161.532  -5.686  1.00  0.00    -0.173 NA
ATOM     31  C   UNL     1     -38.708 163.542  -4.604  1.00  0.00    +0.043 A 
ATOM     32  N   UNL     1     -38.479 162.876  -5.785  1.00  0.00    -0.272 N 
ATOM     33  C   UNL     1     -38.722 165.020  -4.496  1.00  0.00    +0.067 C 
ATOM     34  C   UNL     1     -38.226 163.470  -7.078  1.00  0.00    +0.174 C 
ENDBRANCH  22  24
ENDBRANCH  20  22
ENDBRANCH   1  16
TORSDOF 6
ENDMDL
MODEL 3
REMARK VINA RESULT:   -10.379      6.781     11.836
REMARK INTER + INTRA:         -13.827
REMARK INTER:                 -13.427
REMARK INTRA:                  -0.399
REMARK UNBOUND:                -0.110
REMARK SMILES Cc1ccc(Nc2nccc(N(C)c3ccc4c(C)n(C)nc4c3)n2)cc1S(N)(=O)=O
REMARK SMILES IDX 6 1 5 3 2 4 3 5 27 6 4 7 26 8 1 9 28 10 30 11 31 12 29 13
REMARK SMILES IDX 7 16 8 17 25 18 9 19 11 20 10 21 12 22 13 23 14 24 15 25
REMARK SMILES IDX 24 26 16 27 23 28 17 29 22 30 18 31 20 32 19 33 21 34
REMARK H PARENT 6 2 29 14 29 15
ROOT
ATOM      1  N   UNL     1     -38.892 164.701  -5.617  1.00  0.00    -0.324 N 
ATOM      2  H   UNL     1     -39.632 165.387  -5.691  1.00  0.00    +0.170 HD
ENDROOT
BRANCH   1   3
ATOM      3  C   UNL     1     -38.283 164.279  -6.801  1.00  0.00    +0.042 A 
ATOM      4  C   UNL     1     -37.101 163.252  -9.187  1.00  0.00    -0.031 A 
ATOM      5  C   UNL     1     -37.227 162.457  -8.040  1.00  0.00    +0.007 A 
ATOM      6  C   UNL     1     -37.569 164.576  -9.121  1.00  0.00    +0.087 A 
ATOM      7  C   UNL     1     -37.813 162.961  -6.875  1.00  0.00    +0.026 A 
ATOM      8  C   UNL     1     -38.155 165.074  -7.941  1.00  0.00    +0.048 A 
ATOM      9  C   UNL     1     -36.452 162.649 -10.401  1.00  0.00    +0.046 C 
BRANCH   6  10
ATOM     10  S   UNL     1     -37.456 165.696 -10.506  1.00  0.00    +0.238 S 
ATOM     11  O   UNL     1     -38.301 165.222 -11.578  1.00  0.00    -0.207 OA
ATOM     12  O   UNL     1     -36.072 166.043 -10.729  1.00  0.00    -0.207 OA
BRANCH  10  13
ATOM     13  N   UNL     1     -38.216 167.067  -9.885  1.00  0.00    -0.225 NA
ATOM     14  H   UNL     1     -38.979 167.398 -10.473  1.00  0.00    +0.137 HD
ATOM     15  H   UNL     1     -37.515 167.785  -9.701  1.00  0.00    +0.137 HD
ENDBRANCH  10  13
ENDBRANCH   6  10
ENDBRANCH   1   3
BRANCH   1  16
ATOM     16  C   UNL     1     -38.831 164.277  -4.292  1.00  0.00    +0.229 A 
ATOM     17  N   UNL     1     -38.590 165.121  -3.287  1.00  0.00    -0.221 NA
ATOM     18  N   UNL     1     -39.044 162.965  -4.113  1.00  0.00    -0.195 NA
ATOM     19  C   UNL     1     -38.544 164.593  -2.057  1.00  0.00    +0.119 A 
ATOM     20  C   UNL     1     -38.996 162.433  -2.873  1.00  0.00    +0.138 A 
ATOM     21  C   UNL     1     -38.741 163.258  -1.794  1.00  0.00    +0.067 A 
BRANCH  20  22
ATOM     22  N   UNL     1     -39.230 161.046  -2.730  1.00  0.00    -0.329 N 
ATOM     23  C   UNL     1     -38.982 160.162  -3.868  1.00  0.00    +0.152 C 
BRANCH  22  24
ATOM     24  C   UNL     1     -39.512 160.392  -1.492  1.00  0.00    +0.044 A 
ATOM     25  C   UNL     1     -40.843 160.440  -0.935  1.00  0.00    +0.027 A 
ATOM     26  C   UNL     1     -38.467 159.690  -0.831  1.00  0.00    +0.057 A 
ATOM     27  C   UNL     1     -41.239 159.835   0.279  1.00  0.00    +0.014 A 
ATOM     28  C   UNL     1     -38.831 159.075   0.378  1.00  0.00    +0.095 A 
ATOM     29  C   UNL     1     -40.177 159.171   0.880  1.00  0.00    +0.023 A 
ATOM     30  N   UNL     1     -38.092 158.352   1.234  1.00  0.00    -0.173 NA
ATOM     31  C   UNL     1     -40.222 158.480   2.068  1.00  0.00    +0.043 A 
ATOM     32  N   UNL     1     -38.940 158.005   2.222  1.00  0.00    -0.272 N 
ATOM     33  C   UNL     1     -41.306 158.219   3.044  1.00  0.00    +0.067 C 
ATOM     34  C   UNL     1     -38.441 157.205   3.316  1.00  0.00    +0.174 C 
ENDBRANCH  22  24
ENDBRANCH  20  22
ENDBRANCH   1  16
TORSDOF 6
ENDMDL
MODEL 4
REMARK VINA RESULT:    -9.837      4.738     11.019
REMARK INTER + INTRA:         -13.111
REMARK INTER:                 -12.730
REMARK INTRA:                  -0.381
REMARK UNBOUND:                -0.110
REMARK SMILES Cc1ccc(Nc2nccc(N(C)c3ccc4c(C)n(C)nc4c3)n2)cc1S(N)(=O)=O
REMARK SMILES IDX 6 1 5 3 2 4 3 5 27 6 4 7 26 8 1 9 28 10 30 11 31 12 29 13
REMARK SMILES IDX 7 16 8 17 25 18 9 19 11 20 10 21 12 22 13 23 14 24 15 25
REMARK SMILES IDX 24 26 16 27 23 28 17 29 22 30 18 31 20 32 19 33 21 34
REMARK H PARENT 6 2 29 14 29 15
ROOT
ATOM      1  N   UNL     1     -38.240 157.233   2.692  1.00  0.00    -0.324 N 
ATOM      2  H   UNL     1     -37.938 156.437   2.147  1.00  0.00    +0.170 HD
ENDROOT
BRANCH   1   3
ATOM      3  C   UNL     1     -39.193 158.081   2.121  1.00  0.00    +0.042 A 
ATOM      4  C   UNL     1     -41.220 159.819   1.114  1.00  0.00    -0.031 A 
ATOM      5  C   UNL     1     -41.501 158.884   2.119  1.00  0.00    +0.007 A 
ATOM      6  C   UNL     1     -39.909 159.867   0.612  1.00  0.00    +0.087 A 
ATOM      7  C   UNL     1     -40.503 158.038   2.616  1.00  0.00    +0.026 A 
ATOM      8  C   UNL     1     -38.913 159.009   1.117  1.00  0.00    +0.048 A 
ATOM      9  C   UNL     1     -42.342 160.688   0.620  1.00  0.00    +0.046 C 
BRANCH   6  10
ATOM     10  S   UNL     1     -39.424 161.002  -0.678  1.00  0.00    +0.238 S 
ATOM     11  O   UNL     1     -38.910 162.214  -0.083  1.00  0.00    -0.207 OA
ATOM     12  O   UNL     1     -40.446 161.032  -1.697  1.00  0.00    -0.207 OA
BRANCH  10  13
ATOM     13  N   UNL     1     -38.091 160.205  -1.336  1.00  0.00    -0.225 NA
ATOM     14  H   UNL     1     -37.232 160.373  -0.815  1.00  0.00    +0.137 HD
ATOM     15  H   UNL     1     -38.011 160.445  -2.324  1.00  0.00    +0.137 HD
ENDBRANCH  10  13
ENDBRANCH   6  10
ENDBRANCH   1   3
BRANCH   1  16
ATOM     16  C   UNL     1     -37.445 157.299   3.833  1.00  0.00    +0.229 A 
ATOM     17  N   UNL     1     -37.402 158.385   4.606  1.00  0.00    -0.221 NA
ATOM     18  N   UNL     1     -36.743 156.187   4.092  1.00  0.00    -0.195 NA
ATOM     19  C   UNL     1     -36.592 158.334   5.671  1.00  0.00    +0.119 A 
ATOM     20  C   UNL     1     -35.924 156.135   5.164  1.00  0.00    +0.138 A 
ATOM     21  C   UNL     1     -35.832 157.235   5.996  1.00  0.00    +0.067 A 
BRANCH  20  22
ATOM     22  N   UNL     1     -35.204 154.942   5.401  1.00  0.00    -0.329 N 
ATOM     23  C   UNL     1     -33.766 155.016   5.655  1.00  0.00    +0.152 C 
BRANCH  22  24
ATOM     24  C   UNL     1     -35.800 153.660   5.605  1.00  0.00    +0.044 A 
ATOM     25  C   UNL     1     -37.189 153.560   5.988  1.00  0.00    +0.027 A 
ATOM     26  C   UNL     1     -35.008 152.495   5.416  1.00  0.00    +0.057 A 
ATOM     27  C   UNL     1     -37.884 152.352   6.219  1.00  0.00    +0.014 A 
ATOM     28  C   UNL     1     -35.672 151.277   5.637  1.00  0.00    +0.095 A 
ATOM     29  C   UNL     1     -37.059 151.251   6.026  1.00  0.00    +0.023 A 
ATOM     30  N   UNL     1     -35.215 150.018   5.549  1.00  0.00    -0.173 NA
ATOM     31  C   UNL     1     -37.419 149.933   6.168  1.00  0.00    +0.043 A 
ATOM     32  N   UNL     1     -36.271 149.241   5.861  1.00  0.00    -0.272 N 
ATOM     33  C   UNL     1     -38.690 149.269   6.545  1.00  0.00    +0.067 C 
ATOM     34  C   UNL     1     -36.102 147.806   5.855  1.00  0.00    +0.174 C 
ENDBRANCH  22  24
ENDBRANCH  20  22
ENDBRANCH   1  16
TORSDOF 6
ENDMDL
MODEL 5
REMARK VINA RESULT:    -9.729      3.841      6.568
REMARK INTER + INTRA:         -12.967
REMARK INTER:                 -13.409
REMARK INTRA:                   0.442
REMARK UNBOUND:                -0.110
REMARK SMILES Cc1ccc(Nc2nccc(N(C)c3ccc4c(C)n(C)nc4c3)n2)cc1S(N)(=O)=O
REMARK SMILES IDX 6 1 5 3 2 4 3 5 27 6 4 7 26 8 1 9 28 10 30 11 31 12 29 13
REMARK SMILES IDX 7 16 8 17 25 18 9 19 11 20 10 21 12 22 13 23 14 24 15 25
REMARK SMILES IDX 24 26 16 27 23 28 17 29 22 30 18 31 20 32 19 33 21 34
REMARK H PARENT 6 2 29 14 29 15
ROOT
ATOM      1  N   UNL     1     -39.701 161.753  -1.122  1.00  0.00    -0.324 N 
ATOM      2  H   UNL     1     -39.401 162.673  -0.828  1.00  0.00    +0.170 HD
ENDROOT
BRANCH   1   3
ATOM      3  C   UNL     1     -40.194 160.890  -0.141  1.00  0.00    +0.042 A 
ATOM      4  C   UNL     1     -41.347 159.105   1.765  1.00  0.00    -0.031 A 
ATOM      5  C   UNL     1     -42.148 159.960   0.995  1.00  0.00    +0.007 A 
ATOM      6  C   UNL     1     -39.956 159.162   1.574  1.00  0.00    +0.087 A 
ATOM      7  C   UNL     1     -41.579 160.828   0.057  1.00  0.00    +0.026 A 
ATOM      8  C   UNL     1     -39.395 160.042   0.629  1.00  0.00    +0.048 A 
ATOM      9  C   UNL     1     -42.023 158.206   2.761  1.00  0.00    +0.046 C 
BRANCH   6  10
ATOM     10  S   UNL     1     -38.825 158.137   2.499  1.00  0.00    +0.238 S 
ATOM     11  O   UNL     1     -39.394 156.819   2.662  1.00  0.00    -0.207 OA
ATOM     12  O   UNL     1     -38.313 158.885   3.623  1.00  0.00    -0.207 OA
BRANCH  10  13
ATOM     13  N   UNL     1     -37.559 157.966   1.399  1.00  0.00    -0.225 NA
ATOM     14  H   UNL     1     -37.769 158.366   0.486  1.00  0.00    +0.137 HD
ATOM     15  H   UNL     1     -37.288 156.983   1.350  1.00  0.00    +0.137 HD
ENDBRANCH  10  13
ENDBRANCH   6  10
ENDBRANCH   1   3
BRANCH   1  16
ATOM     16  C   UNL     1     -39.360 161.600  -2.464  1.00  0.00    +0.229 A 
ATOM     17  N   UNL     1     -39.296 160.402  -3.048  1.00  0.00    -0.221 NA
ATOM     18  N   UNL     1     -39.115 162.747  -3.114  1.00  0.00    -0.195 NA
ATOM     19  C   UNL     1     -38.946 160.382  -4.341  1.00  0.00    +0.119 A 
ATOM     20  C   UNL     1     -38.760 162.726  -4.417  1.00  0.00    +0.138 A 
ATOM     21  C   UNL     1     -38.669 161.512  -5.072  1.00  0.00    +0.067 A 
BRANCH  20  22
ATOM     22  N   UNL     1     -38.514 163.959  -5.064  1.00  0.00    -0.329 N 
ATOM     23  C   UNL     1     -38.271 165.151  -4.254  1.00  0.00    +0.152 C 
BRANCH  22  24
ATOM     24  C   UNL     1     -38.291 164.111  -6.466  1.00  0.00    +0.044 A 
ATOM     25  C   UNL     1     -37.994 162.957  -7.281  1.00  0.00    +0.027 A 
ATOM     26  C   UNL     1     -38.377 165.409  -7.040  1.00  0.00    +0.057 A 
ATOM     27  C   UNL     1     -37.753 162.985  -8.674  1.00  0.00    +0.014 A 
ATOM     28  C   UNL     1     -38.144 165.468  -8.423  1.00  0.00    +0.095 A 
ATOM     29  C   UNL     1     -37.844 164.277  -9.175  1.00  0.00    +0.023 A 
ATOM     30  N   UNL     1     -38.147 166.524  -9.253  1.00  0.00    -0.173 NA
ATOM     31  C   UNL     1     -37.666 164.653 -10.484  1.00  0.00    +0.043 A 
ATOM     32  N   UNL     1     -37.868 166.013 -10.469  1.00  0.00    -0.272 N 
ATOM     33  C   UNL     1     -37.342 163.895 -11.717  1.00  0.00    +0.067 C 
ATOM     34  C   UNL     1     -37.799 166.910 -11.599  1.00  0.00    +0.174 C 
ENDBRANCH  22  24
ENDBRANCH  20  22
ENDBRANCH   1  16
TORSDOF 6
ENDMDL
MODEL 6
REMARK VINA RESULT:    -9.540      7.052     12.374
REMARK INTER + INTRA:         -12.718
REMARK INTER:                 -12.534
REMARK INTRA:                  -0.183
REMARK UNBOUND:                -0.110
REMARK SMILES Cc1ccc(Nc2nccc(N(C)c3ccc4c(C)n(C)nc4c3)n2)cc1S(N)(=O)=O
REMARK SMILES IDX 6 1 5 3 2 4 3 5 27 6 4 7 26 8 1 9 28 10 30 11 31 12 29 13
REMARK SMILES IDX 7 16 8 17 25 18 9 19 11 20 10 21 12 22 13 23 14 24 15 25
REMARK SMILES IDX 24 26 16 27 23 28 17 29 22 30 18 31 20 32 19 33 21 34
REMARK H PARENT 6 2 29 14 29 15
ROOT
ATOM      1  N   UNL     1     -38.420 163.741  -6.489  1.00  0.00    -0.324 N 
ATOM      2  H   UNL     1     -38.752 164.571  -6.017  1.00  0.00    +0.170 HD
ENDROOT
BRANCH   1   3
ATOM      3  C   UNL     1     -37.970 163.884  -7.804  1.00  0.00    +0.042 A 
ATOM      4  C   UNL     1     -37.136 164.025 -10.530  1.00  0.00    -0.031 A 
ATOM      5  C   UNL     1     -37.310 162.792  -9.889  1.00  0.00    +0.007 A 
ATOM      6  C   UNL     1     -37.377 165.192  -9.783  1.00  0.00    +0.087 A 
ATOM      7  C   UNL     1     -37.727 162.726  -8.555  1.00  0.00    +0.026 A 
ATOM      8  C   UNL     1     -37.792 165.114  -8.440  1.00  0.00    +0.048 A 
ATOM      9  C   UNL     1     -36.677 164.023 -11.961  1.00  0.00    +0.046 C 
BRANCH   6  10
ATOM     10  S   UNL     1     -37.178 166.824 -10.477  1.00  0.00    +0.238 S 
ATOM     11  O   UNL     1     -38.305 167.126 -11.329  1.00  0.00    -0.207 OA
ATOM     12  O   UNL     1     -35.818 166.987 -10.934  1.00  0.00    -0.207 OA
BRANCH  10  13
ATOM     13  N   UNL     1     -37.358 167.790  -9.107  1.00  0.00    -0.225 NA
ATOM     14  H   UNL     1     -36.836 167.442  -8.304  1.00  0.00    +0.137 HD
ATOM     15  H   UNL     1     -38.352 167.912  -8.911  1.00  0.00    +0.137 HD
ENDBRANCH  10  13
ENDBRANCH   6  10
ENDBRANCH   1   3
BRANCH   1  16
ATOM     16  C   UNL     1     -38.679 162.646  -5.668  1.00  0.00    +0.229 A 
ATOM     17  N   UNL     1     -38.843 161.416  -6.156  1.00  0.00    -0.221 NA
ATOM     18  N   UNL     1     -38.738 162.930  -4.359  1.00  0.00    -0.195 NA
ATOM     19  C   UNL     1     -39.099 160.446  -5.269  1.00  0.00    +0.119 A 
ATOM     20  C   UNL     1     -38.998 161.952  -3.464  1.00  0.00    +0.138 A 
ATOM     21  C   UNL     1     -39.186 160.659  -3.913  1.00  0.00    +0.067 A 
BRANCH  20  22
ATOM     22  N   UNL     1     -39.048 162.295  -2.093  1.00  0.00    -0.329 N 
ATOM     23  C   UNL     1     -38.915 163.699  -1.706  1.00  0.00    +0.152 C 
BRANCH  22  24
ATOM     24  C   UNL     1     -39.412 161.399  -1.044  1.00  0.00    +0.044 A 
ATOM     25  C   UNL     1     -40.802 161.213  -0.700  1.00  0.00    +0.027 A 
ATOM     26  C   UNL     1     -38.388 160.691  -0.356  1.00  0.00    +0.057 A 
ATOM     27  C   UNL     1     -41.282 160.357   0.317  1.00  0.00    +0.014 A 
ATOM     28  C   UNL     1     -38.834 159.831   0.660  1.00  0.00    +0.095 A 
ATOM     29  C   UNL     1     -40.238 159.700   0.956  1.00  0.00    +0.023 A 
ATOM     30  N   UNL     1     -38.134 159.037   1.486  1.00  0.00    -0.173 NA
ATOM     31  C   UNL     1     -40.357 158.800   1.987  1.00  0.00    +0.043 A 
ATOM     32  N   UNL     1     -39.060 158.431   2.257  1.00  0.00    -0.272 N 
ATOM     33  C   UNL     1     -41.523 158.258   2.725  1.00  0.00    +0.067 C 
ATOM     34  C   UNL     1     -38.618 157.495   3.265  1.00  0.00    +0.174 C 
ENDBRANCH  22  24
ENDBRANCH  20  22
ENDBRANCH   1  16
TORSDOF 6
ENDMDL
MODEL 7
REMARK VINA RESULT:    -9.518      6.914     11.409
REMARK INTER + INTRA:         -12.689
REMARK INTER:                 -12.612
REMARK INTRA:                  -0.076
REMARK UNBOUND:                -0.110
REMARK SMILES Cc1ccc(Nc2nccc(N(C)c3ccc4c(C)n(C)nc4c3)n2)cc1S(N)(=O)=O
REMARK SMILES IDX 6 1 5 3 2 4 3 5 27 6 4 7 26 8 1 9 28 10 30 11 31 12 29 13
REMARK SMILES IDX 7 16 8 17 25 18 9 19 11 20 10 21 12 22 13 23 14 24 15 25
REMARK SMILES IDX 24 26 16 27 23 28 17 29 22 30 18 31 20 32 19 33 21 34
REMARK H PARENT 6 2 29 14 29 15
ROOT
ATOM      1  N   UNL     1     -36.170 159.765  -8.544  1.00  0.00    -0.324 N 
ATOM      2  H   UNL     1     -35.540 159.926  -7.770  1.00  0.00    +0.170 HD
ENDROOT
BRANCH   1   3
ATOM      3  C   UNL     1     -36.075 158.539  -9.208  1.00  0.00    +0.042 A 
ATOM      4  C   UNL     1     -36.034 156.075 -10.647  1.00  0.00    -0.031 A 
ATOM      5  C   UNL     1     -37.242 156.665 -10.254  1.00  0.00    +0.007 A 
ATOM      6  C   UNL     1     -34.841 156.732 -10.301  1.00  0.00    +0.087 A 
ATOM      7  C   UNL     1     -37.259 157.877  -9.556  1.00  0.00    +0.026 A 
ATOM      8  C   UNL     1     -34.870 157.950  -9.594  1.00  0.00    +0.048 A 
ATOM      9  C   UNL     1     -36.089 154.767 -11.386  1.00  0.00    +0.046 C 
BRANCH   6  10
ATOM     10  S   UNL     1     -33.235 156.080 -10.728  1.00  0.00    +0.238 S 
ATOM     11  O   UNL     1     -33.003 156.261 -12.143  1.00  0.00    -0.207 OA
ATOM     12  O   UNL     1     -33.054 154.798 -10.088  1.00  0.00    -0.207 OA
BRANCH  10  13
ATOM     13  N   UNL     1     -32.216 157.172  -9.946  1.00  0.00    -0.225 NA
ATOM     14  H   UNL     1     -32.681 158.047  -9.706  1.00  0.00    +0.137 HD
ATOM     15  H   UNL     1     -31.376 157.310 -10.508  1.00  0.00    +0.137 HD
ENDBRANCH  10  13
ENDBRANCH   6  10
ENDBRANCH   1   3
BRANCH   1  16
ATOM     16  C   UNL     1     -36.857 160.950  -8.793  1.00  0.00    +0.229 A 
ATOM     17  N   UNL     1     -37.172 161.342 -10.028  1.00  0.00    -0.221 NA
ATOM     18  N   UNL     1     -37.180 161.651  -7.696  1.00  0.00    -0.195 NA
ATOM     19  C   UNL     1     -37.824 162.506 -10.142  1.00  0.00    +0.119 A 
ATOM     20  C   UNL     1     -37.835 162.826  -7.811  1.00  0.00    +0.138 A 
ATOM     21  C   UNL     1     -38.180 163.287  -9.068  1.00  0.00    +0.067 A 
BRANCH  20  22
ATOM     22  N   UNL     1     -38.159 163.530  -6.629  1.00  0.00    -0.329 N 
ATOM     23  C   UNL     1     -38.414 164.968  -6.704  1.00  0.00    +0.152 C 
BRANCH  22  24
ATOM     24  C   UNL     1     -38.451 162.919  -5.372  1.00  0.00    +0.044 A 
ATOM     25  C   UNL     1     -38.641 163.735  -4.196  1.00  0.00    +0.027 A 
ATOM     26  C   UNL     1     -38.561 161.503  -5.304  1.00  0.00    +0.057 A 
ATOM     27  C   UNL     1     -38.932 163.245  -2.903  1.00  0.00    +0.014 A 
ATOM     28  C   UNL     1     -38.852 160.985  -4.032  1.00  0.00    +0.095 A 
ATOM     29  C   UNL     1     -39.020 161.859  -2.899  1.00  0.00    +0.023 A 
ATOM     30  N   UNL     1     -39.013 159.713  -3.635  1.00  0.00    -0.173 NA
ATOM     31  C   UNL     1     -39.289 161.067  -1.808  1.00  0.00    +0.043 A 
ATOM     32  N   UNL     1     -39.279 159.789  -2.316  1.00  0.00    -0.272 N 
ATOM     33  C   UNL     1     -39.553 161.370  -0.381  1.00  0.00    +0.067 C 
ATOM     34  C   UNL     1     -39.508 158.565  -1.583  1.00  0.00    +0.174 C 
ENDBRANCH  22  24
ENDBRANCH  20  22
ENDBRANCH   1  16
TORSDOF 6
ENDMDL
MODEL 8
REMARK VINA RESULT:    -9.505      6.579     11.980
REMARK INTER + INTRA:         -12.672
REMARK INTER:                 -12.171
REMARK INTRA:                  -0.501
REMARK UNBOUND:                -0.110
REMARK SMILES Cc1ccc(Nc2nccc(N(C)c3ccc4c(C)n(C)nc4c3)n2)cc1S(N)(=O)=O
REMARK SMILES IDX 6 1 5 3 2 4 3 5 27 6 4 7 26 8 1 9 28 10 30 11 31 12 29 13
REMARK SMILES IDX 7 16 8 17 25 18 9 19 11 20 10 21 12 22 13 23 14 24 15 25
REMARK SMILES IDX 24 26 16 27 23 28 17 29 22 30 18 31 20 32 19 33 21 34
REMARK H PARENT 6 2 29 14 29 15
ROOT
ATOM      1  N   UNL     1     -38.012 163.967  -6.392  1.00  0.00    -0.324 N 
ATOM      2  H   UNL     1     -37.906 164.763  -5.778  1.00  0.00    +0.170 HD
ENDROOT
BRANCH   1   3
ATOM      3  C   UNL     1     -37.908 164.195  -7.767  1.00  0.00    +0.042 A 
ATOM      4  C   UNL     1     -37.653 164.831 -10.537  1.00  0.00    -0.031 A 
ATOM      5  C   UNL     1     -38.100 165.785  -9.613  1.00  0.00    +0.007 A 
ATOM      6  C   UNL     1     -37.342 163.548 -10.056  1.00  0.00    +0.087 A 
ATOM      7  C   UNL     1     -38.217 165.472  -8.254  1.00  0.00    +0.026 A 
ATOM      8  C   UNL     1     -37.467 163.243  -8.687  1.00  0.00    +0.048 A 
ATOM      9  C   UNL     1     -37.561 165.232 -11.983  1.00  0.00    +0.046 C 
BRANCH   6  10
ATOM     10  S   UNL     1     -36.776 162.240 -11.130  1.00  0.00    +0.238 S 
ATOM     11  O   UNL     1     -35.494 162.598 -11.690  1.00  0.00    -0.207 OA
ATOM     12  O   UNL     1     -37.870 161.798 -11.963  1.00  0.00    -0.207 OA
BRANCH  10  13
ATOM     13  N   UNL     1     -36.472 161.008 -10.019  1.00  0.00    -0.225 NA
ATOM     14  H   UNL     1     -36.662 160.080 -10.394  1.00  0.00    +0.137 HD
ATOM     15  H   UNL     1     -36.982 161.201  -9.157  1.00  0.00    +0.137 HD
ENDBRANCH  10  13
ENDBRANCH   6  10
ENDBRANCH   1   3
BRANCH   1  16
ATOM     16  C   UNL     1     -38.394 162.874  -5.619  1.00  0.00    +0.229 A 
ATOM     17  N   UNL     1     -38.630 161.674  -6.152  1.00  0.00    -0.221 NA
ATOM     18  N   UNL     1     -38.495 163.126  -4.305  1.00  0.00    -0.195 NA
ATOM     19  C   UNL     1     -39.003 160.704  -5.307  1.00  0.00    +0.119 A 
ATOM     20  C   UNL     1     -38.874 162.148  -3.454  1.00  0.00    +0.138 A 
ATOM     21  C   UNL     1     -39.139 160.886  -3.952  1.00  0.00    +0.067 A 
BRANCH  20  22
ATOM     22  N   UNL     1     -38.964 162.456  -2.077  1.00  0.00    -0.329 N 
ATOM     23  C   UNL     1     -38.828 163.847  -1.650  1.00  0.00    +0.152 C 
BRANCH  22  24
ATOM     24  C   UNL     1     -39.372 161.538  -1.063  1.00  0.00    +0.044 A 
ATOM     25  C   UNL     1     -40.775 161.364  -0.766  1.00  0.00    +0.027 A 
ATOM     26  C   UNL     1     -38.380 160.796  -0.366  1.00  0.00    +0.057 A 
ATOM     27  C   UNL     1     -41.297 160.489   0.214  1.00  0.00    +0.014 A 
ATOM     28  C   UNL     1     -38.869 159.915   0.613  1.00  0.00    +0.095 A 
ATOM     29  C   UNL     1     -40.282 159.799   0.864  1.00  0.00    +0.023 A 
ATOM     30  N   UNL     1     -38.205 159.089   1.437  1.00  0.00    -0.173 NA
ATOM     31  C   UNL     1     -40.445 158.874   1.867  1.00  0.00    +0.043 A 
ATOM     32  N   UNL     1     -39.162 158.477   2.163  1.00  0.00    -0.272 N 
ATOM     33  C   UNL     1     -41.641 158.330   2.555  1.00  0.00    +0.067 C 
ATOM     34  C   UNL     1     -38.764 157.508   3.158  1.00  0.00    +0.174 C 
ENDBRANCH  22  24
ENDBRANCH  20  22
ENDBRANCH   1  16
TORSDOF 6
ENDMDL
MODEL 9
REMARK VINA RESULT:    -9.389      6.008     11.207
REMARK INTER + INTRA:         -12.518
REMARK INTER:                 -12.688
REMARK INTRA:                   0.170
REMARK UNBOUND:                -0.110
REMARK SMILES Cc1ccc(Nc2nccc(N(C)c3ccc4c(C)n(C)nc4c3)n2)cc1S(N)(=O)=O
REMARK SMILES IDX 6 1 5 3 2 4 3 5 27 6 4 7 26 8 1 9 28 10 30 11 31 12 29 13
REMARK SMILES IDX 7 16 8 17 25 18 9 19 11 20 10 21 12 22 13 23 14 24 15 25
REMARK SMILES IDX 24 26 16 27 23 28 17 29 22 30 18 31 20 32 19 33 21 34
REMARK H PARENT 6 2 29 14 29 15
ROOT
ATOM      1  N   UNL     1     -36.432 161.973  -7.874  1.00  0.00    -0.324 N 
ATOM      2  H   UNL     1     -35.547 162.018  -7.387  1.00  0.00    +0.170 HD
ENDROOT
BRANCH   1   3
ATOM      3  C   UNL     1     -36.578 160.991  -8.857  1.00  0.00    +0.042 A 
ATOM      4  C   UNL     1     -36.863 159.114 -10.988  1.00  0.00    -0.031 A 
ATOM      5  C   UNL     1     -37.352 160.421 -11.104  1.00  0.00    +0.007 A 
ATOM      6  C   UNL     1     -36.234 158.754  -9.783  1.00  0.00    +0.087 A 
ATOM      7  C   UNL     1     -37.204 161.341 -10.060  1.00  0.00    +0.026 A 
ATOM      8  C   UNL     1     -36.094 159.687  -8.738  1.00  0.00    +0.048 A 
ATOM      9  C   UNL     1     -37.065 158.174 -12.143  1.00  0.00    +0.046 C 
BRANCH   6  10
ATOM     10  S   UNL     1     -35.580 157.117  -9.502  1.00  0.00    +0.238 S 
ATOM     11  O   UNL     1     -34.665 156.776 -10.566  1.00  0.00    -0.207 OA
ATOM     12  O   UNL     1     -36.654 156.233  -9.113  1.00  0.00    -0.207 OA
BRANCH  10  13
ATOM     13  N   UNL     1     -34.629 157.372  -8.133  1.00  0.00    -0.225 NA
ATOM     14  H   UNL     1     -33.685 157.681  -8.358  1.00  0.00    +0.137 HD
ATOM     15  H   UNL     1     -34.644 156.533  -7.553  1.00  0.00    +0.137 HD
ENDBRANCH  10  13
ENDBRANCH   6  10
ENDBRANCH   1   3
BRANCH   1  16
ATOM     16  C   UNL     1     -37.197 163.067  -7.477  1.00  0.00    +0.229 A 
ATOM     17  N   UNL     1     -37.480 164.073  -8.306  1.00  0.00    -0.221 NA
ATOM     18  N   UNL     1     -37.627 163.019  -6.208  1.00  0.00    -0.195 NA
ATOM     19  C   UNL     1     -38.215 165.075  -7.805  1.00  0.00    +0.119 A 
ATOM     20  C   UNL     1     -38.366 164.030  -5.703  1.00  0.00    +0.138 A 
ATOM     21  C   UNL     1     -38.683 165.104  -6.513  1.00  0.00    +0.067 A 
BRANCH  20  22
ATOM     22  N   UNL     1     -38.802 163.936  -4.361  1.00  0.00    -0.329 N 
ATOM     23  C   UNL     1     -39.388 165.112  -3.720  1.00  0.00    +0.152 C 
BRANCH  22  24
ATOM     24  C   UNL     1     -38.896 162.720  -3.620  1.00  0.00    +0.044 A 
ATOM     25  C   UNL     1     -38.824 161.449  -4.302  1.00  0.00    +0.027 A 
ATOM     26  C   UNL     1     -39.051 162.784  -2.208  1.00  0.00    +0.057 A 
ATOM     27  C   UNL     1     -38.907 160.184  -3.677  1.00  0.00    +0.014 A 
ATOM     28  C   UNL     1     -39.134 161.542  -1.558  1.00  0.00    +0.095 A 
ATOM     29  C   UNL     1     -39.063 160.311  -2.303  1.00  0.00    +0.023 A 
ATOM     30  N   UNL     1     -39.284 161.260  -0.254  1.00  0.00    -0.173 NA
ATOM     31  C   UNL     1     -39.176 159.280  -1.401  1.00  0.00    +0.043 A 
ATOM     32  N   UNL     1     -39.299 159.914  -0.187  1.00  0.00    -0.272 N 
ATOM     33  C   UNL     1     -39.176 157.805  -1.549  1.00  0.00    +0.067 C 
ATOM     34  C   UNL     1     -39.448 159.286   1.106  1.00  0.00    +0.174 C 
ENDBRANCH  22  24
ENDBRANCH  20  22
ENDBRANCH   1  16
TORSDOF 6
ENDMDL
MODEL 10
REMARK VINA RESULT:    -9.104      8.603     11.886
REMARK INTER + INTRA:         -12.142
REMARK INTER:                 -11.797
REMARK INTRA:                  -0.345
REMARK UNBOUND:                -0.110
REMARK SMILES Cc1ccc(Nc2nccc(N(C)c3ccc4c(C)n(C)nc4c3)n2)cc1S(N)(=O)=O
REMARK SMILES IDX 6 1 5 3 2 4 3 5 27 6 4 7 26 8 1 9 28 10 30 11 31 12 29 13
REMARK SMILES IDX 7 16 8 17 25 18 9 19 11 20 10 21 12 22 13 23 14 24 15 25
REMARK SMILES IDX 24 26 16 27 23 28 17 29 22 30 18 31 20 32 19 33 21 34
REMARK H PARENT 6 2 29 14 29 15
ROOT
ATOM      1  N   UNL     1     -34.460 148.863   3.033  1.00  0.00    -0.324 N 
ATOM      2  H   UNL     1     -33.688 149.481   3.244  1.00  0.00    +0.170 HD
ENDROOT
BRANCH   1   3
ATOM      3  C   UNL     1     -34.433 148.193   1.808  1.00  0.00    +0.042 A 
ATOM      4  C   UNL     1     -34.368 146.669  -0.605  1.00  0.00    -0.031 A 
ATOM      5  C   UNL     1     -33.685 146.241   0.541  1.00  0.00    +0.007 A 
ATOM      6  C   UNL     1     -35.079 147.879  -0.530  1.00  0.00    +0.087 A 
ATOM      7  C   UNL     1     -33.726 146.986   1.724  1.00  0.00    +0.026 A 
ATOM      8  C   UNL     1     -35.109 148.623   0.665  1.00  0.00    +0.048 A 
ATOM      9  C   UNL     1     -34.274 145.824  -1.845  1.00  0.00    +0.046 C 
BRANCH   6  10
ATOM     10  S   UNL     1     -35.978 148.543  -1.922  1.00  0.00    +0.238 S 
ATOM     11  O   UNL     1     -37.388 148.280  -1.753  1.00  0.00    -0.207 OA
ATOM     12  O   UNL     1     -35.285 148.206  -3.144  1.00  0.00    -0.207 OA
BRANCH  10  13
ATOM     13  N   UNL     1     -35.781 150.200  -1.683  1.00  0.00    -0.225 NA
ATOM     14  H   UNL     1     -36.357 150.763  -2.307  1.00  0.00    +0.137 HD
ATOM     15  H   UNL     1     -34.789 150.432  -1.740  1.00  0.00    +0.137 HD
ENDBRANCH  10  13
ENDBRANCH   6  10
ENDBRANCH   1   3
BRANCH   1  16
ATOM     16  C   UNL     1     -35.417 149.015   4.032  1.00  0.00    +0.229 A 
ATOM     17  N   UNL     1     -36.576 148.355   4.012  1.00  0.00    -0.221 NA
ATOM     18  N   UNL     1     -35.075 149.865   5.012  1.00  0.00    -0.195 NA
ATOM     19  C   UNL     1     -37.421 148.592   5.023  1.00  0.00    +0.119 A 
ATOM     20  C   UNL     1     -35.928 150.106   6.030  1.00  0.00    +0.138 A 
ATOM     21  C   UNL     1     -37.147 149.456   6.057  1.00  0.00    +0.067 A 
BRANCH  20  22
ATOM     22  N   UNL     1     -35.525 151.006   7.043  1.00  0.00    -0.329 N 
ATOM     23  C   UNL     1     -35.187 150.483   8.366  1.00  0.00    +0.152 C 
BRANCH  22  24
ATOM     24  C   UNL     1     -35.229 152.387   6.833  1.00  0.00    +0.044 A 
ATOM     25  C   UNL     1     -33.901 152.791   6.436  1.00  0.00    +0.027 A 
ATOM     26  C   UNL     1     -36.262 153.347   7.011  1.00  0.00    +0.057 A 
ATOM     27  C   UNL     1     -33.491 154.123   6.202  1.00  0.00    +0.014 A 
ATOM     28  C   UNL     1     -35.886 154.681   6.784  1.00  0.00    +0.095 A 
ATOM     29  C   UNL     1     -34.539 155.014   6.397  1.00  0.00    +0.023 A 
ATOM     30  N   UNL     1     -36.612 155.807   6.869  1.00  0.00    -0.173 NA
ATOM     31  C   UNL     1     -34.480 156.379   6.254  1.00  0.00    +0.043 A 
ATOM     32  N   UNL     1     -35.758 156.798   6.543  1.00  0.00    -0.272 N 
ATOM     33  C   UNL     1     -33.388 157.309   5.879  1.00  0.00    +0.067 C 
ATOM     34  C   UNL     1     -36.243 158.159   6.539  1.00  0.00    +0.174 C 
ENDBRANCH  22  24
ENDBRANCH  20  22
ENDBRANCH   1  16
TORSDOF 6
ENDMDL
