REMARK SMILES Cc1ccc(NC(=O)c2ccc(CN3CCN(C)CC3)cc2)cc1Nc1nccc(-c2cccnc2)n1
REMARK SMILES IDX 6 1 7 2 8 3 5 5 2 6 3 7 24 8 4 9 23 10 1 11 25 12 26 14
REMARK SMILES IDX 27 15 37 16 28 17 30 18 29 19 31 20 32 21 36 22 33 23 35 24
REMARK SMILES IDX 34 25 9 26 10 27 22 28 11 29 21 30 12 31 13 32 14 33 15 34
REMARK SMILES IDX 20 35 16 36 19 37 17 38 18 39
REMARK H PARENT 6 4 25 13
ROOT
ATOM      1  N   UNL     1      -0.632  -1.033  -1.354  1.00  0.00    -0.322 N 
ATOM      2  C   UNL     1      -0.482  -0.449  -0.110  1.00  0.00    +0.255 C 
ATOM      3  O   UNL     1      -1.156  -0.658   0.891  1.00  0.00    -0.269 OA
ATOM      4  H   UNL     1       0.133  -0.915  -2.005  1.00  0.00    +0.170 HD
ENDROOT
BRANCH   1   5
ATOM      5  C   UNL     1      -1.674  -1.882  -1.784  1.00  0.00    +0.043 A 
ATOM      6  C   UNL     1      -3.667  -3.593  -2.798  1.00  0.00    -0.027 A 
ATOM      7  C   UNL     1      -2.485  -3.364  -3.518  1.00  0.00    +0.008 A 
ATOM      8  C   UNL     1      -3.863  -2.965  -1.546  1.00  0.00    +0.046 A 
ATOM      9  C   UNL     1      -1.503  -2.512  -3.018  1.00  0.00    +0.026 A 
ATOM     10  C   UNL     1      -2.856  -2.104  -1.069  1.00  0.00    +0.052 A 
ATOM     11  C   UNL     1      -4.706  -4.506  -3.395  1.00  0.00    +0.046 C 
BRANCH   8  12
ATOM     12  N   UNL     1      -5.076  -3.155  -0.864  1.00  0.00    -0.324 N 
ATOM     13  H   UNL     1      -5.594  -3.994  -1.075  1.00  0.00    +0.170 HD
BRANCH  12  14
ATOM     14  C   UNL     1      -5.716  -2.495   0.180  1.00  0.00    +0.227 A 
ATOM     15  N   UNL     1      -6.812  -3.115   0.647  1.00  0.00    -0.221 NA
ATOM     16  N   UNL     1      -5.295  -1.310   0.639  1.00  0.00    -0.213 NA
ATOM     17  C   UNL     1      -7.485  -2.506   1.637  1.00  0.00    +0.117 A 
ATOM     18  C   UNL     1      -5.995  -0.710   1.627  1.00  0.00    +0.077 A 
ATOM     19  C   UNL     1      -7.121  -1.295   2.169  1.00  0.00    +0.049 A 
BRANCH  18  20
ATOM     20  C   UNL     1      -5.468   0.587   2.083  1.00  0.00    +0.019 A 
ATOM     21  C   UNL     1      -4.094   0.860   2.091  1.00  0.00    +0.013 A 
ATOM     22  C   UNL     1      -6.289   1.625   2.528  1.00  0.00    +0.121 A 
ATOM     23  C   UNL     1      -3.610   2.090   2.531  1.00  0.00    +0.021 A 
ATOM     24  N   UNL     1      -5.856   2.834   2.971  1.00  0.00    -0.264 NA
ATOM     25  C   UNL     1      -4.522   3.036   2.959  1.00  0.00    +0.111 A 
ENDBRANCH  18  20
ENDBRANCH  12  14
ENDBRANCH   8  12
ENDBRANCH   1   5
BRANCH   2  26
ATOM     26  C   UNL     1       0.674   0.485   0.004  1.00  0.00    +0.040 A 
ATOM     27  C   UNL     1       1.049   1.322  -1.053  1.00  0.00    +0.014 A 
ATOM     28  C   UNL     1       1.371   0.542   1.215  1.00  0.00    +0.014 A 
ATOM     29  C   UNL     1       2.136   2.188  -0.905  1.00  0.00    +0.006 A 
ATOM     30  C   UNL     1       2.458   1.409   1.358  1.00  0.00    +0.006 A 
ATOM     31  C   UNL     1       2.859   2.234   0.297  1.00  0.00    -0.034 A 
BRANCH  31  32
ATOM     32  C   UNL     1       4.035   3.178   0.456  1.00  0.00    +0.120 C 
BRANCH  32  33
ATOM     33  N   UNL     1       5.359   2.631   0.173  1.00  0.00    -0.297 NA
ATOM     34  C   UNL     1       5.625   2.334  -1.240  1.00  0.00    +0.100 C 
ATOM     35  C   UNL     1       5.804   1.552   1.052  1.00  0.00    +0.100 C 
ATOM     36  C   UNL     1       6.873   1.441  -1.490  1.00  0.00    +0.099 C 
ATOM     37  C   UNL     1       7.315   1.229   0.879  1.00  0.00    +0.099 C 
ATOM     38  N   UNL     1       7.885   1.576  -0.437  1.00  0.00    -0.304 NA
ATOM     39  C   UNL     1       9.084   0.799  -0.724  1.00  0.00    +0.105 C 
ENDBRANCH  32  33
ENDBRANCH  31  32
ENDBRANCH   2  26
TORSDOF 7
