MODEL 1
REMARK VINA RESULT:   -12.407      0.000      0.000
REMARK INTER + INTRA:         -18.237
REMARK INTER:                 -17.485
REMARK INTRA:                  -0.752
REMARK UNBOUND:                -0.752
REMARK SMILES Cc1ccc(NC(=O)c2ccc(CN3CCN(C)CC3)cc2)cc1Nc1nccc(-c2cccnc2)n1
REMARK SMILES IDX 6 1 7 2 8 3 5 5 2 6 3 7 24 8 4 9 23 10 1 11 25 12 26 14
REMARK SMILES IDX 27 15 37 16 28 17 30 18 29 19 31 20 32 21 36 22 33 23 35 24
REMARK SMILES IDX 34 25 9 26 10 27 22 28 11 29 21 30 12 31 13 32 14 33 15 34
REMARK SMILES IDX 20 35 16 36 19 37 17 38 18 39
REMARK H PARENT 6 4 25 13
ROOT
ATOM      1  N   UNL     1     -39.048 157.766   3.405  1.00  0.00    -0.322 N 
ATOM      2  C   UNL     1     -37.705 157.499   3.221  1.00  0.00    +0.255 C 
ATOM      3  O   UNL     1     -36.962 157.989   2.379  1.00  0.00    -0.269 OA
ATOM      4  H   UNL     1     -39.459 157.445   4.272  1.00  0.00    +0.170 HD
ENDROOT
BRANCH   1   5
ATOM      5  C   UNL     1     -39.891 158.544   2.582  1.00  0.00    +0.043 A 
ATOM      6  C   UNL     1     -41.710 160.002   1.003  1.00  0.00    -0.027 A 
ATOM      7  C   UNL     1     -42.167 159.087   1.964  1.00  0.00    +0.008 A 
ATOM      8  C   UNL     1     -40.321 160.202   0.826  1.00  0.00    +0.046 A 
ATOM      9  C   UNL     1     -41.266 158.362   2.739  1.00  0.00    +0.026 A 
ATOM     10  C   UNL     1     -39.433 159.450   1.619  1.00  0.00    +0.052 A 
ATOM     11  C   UNL     1     -42.727 160.744   0.176  1.00  0.00    +0.046 C 
BRANCH   8  12
ATOM     12  N   UNL     1     -39.875 161.076  -0.180  1.00  0.00    -0.324 N 
ATOM     13  H   UNL     1     -39.655 162.020   0.097  1.00  0.00    +0.170 HD
BRANCH  12  14
ATOM     14  C   UNL     1     -39.526 160.918  -1.517  1.00  0.00    +0.227 A 
ATOM     15  N   UNL     1     -39.399 159.642  -1.917  1.00  0.00    -0.221 NA
ATOM     16  N   UNL     1     -39.286 161.963  -2.320  1.00  0.00    -0.213 NA
ATOM     17  C   UNL     1     -39.035 159.433  -3.193  1.00  0.00    +0.117 A 
ATOM     18  C   UNL     1     -38.910 161.728  -3.596  1.00  0.00    +0.077 A 
ATOM     19  C   UNL     1     -38.775 160.444  -4.083  1.00  0.00    +0.049 A 
BRANCH  18  20
ATOM     20  C   UNL     1     -38.669 162.926  -4.418  1.00  0.00    +0.019 A 
ATOM     21  C   UNL     1     -38.393 162.833  -5.789  1.00  0.00    +0.013 A 
ATOM     22  C   UNL     1     -38.705 164.222  -3.899  1.00  0.00    +0.121 A 
ATOM     23  C   UNL     1     -38.162 163.975  -6.552  1.00  0.00    +0.021 A 
ATOM     24  N   UNL     1     -38.478 165.358  -4.608  1.00  0.00    -0.264 NA
ATOM     25  C   UNL     1     -38.214 165.204  -5.923  1.00  0.00    +0.111 A 
ENDBRANCH  18  20
ENDBRANCH  12  14
ENDBRANCH   8  12
ENDBRANCH   1   5
BRANCH   2  26
ATOM     26  C   UNL     1     -37.115 156.555   4.212  1.00  0.00    +0.040 A 
ATOM     27  C   UNL     1     -37.852 155.486   4.736  1.00  0.00    +0.014 A 
ATOM     28  C   UNL     1     -35.781 156.731   4.593  1.00  0.00    +0.014 A 
ATOM     29  C   UNL     1     -37.262 154.619   5.660  1.00  0.00    +0.006 A 
ATOM     30  C   UNL     1     -35.196 155.862   5.518  1.00  0.00    +0.006 A 
ATOM     31  C   UNL     1     -35.932 154.803   6.069  1.00  0.00    -0.034 A 
BRANCH  31  32
ATOM     32  C   UNL     1     -35.293 153.857   7.068  1.00  0.00    +0.120 C 
BRANCH  32  33
ATOM     33  N   UNL     1     -35.522 152.430   6.860  1.00  0.00    -0.297 NA
ATOM     34  C   UNL     1     -35.570 151.619   8.083  1.00  0.00    +0.100 C 
ATOM     35  C   UNL     1     -34.715 151.800   5.817  1.00  0.00    +0.100 C 
ATOM     36  C   UNL     1     -35.460 150.086   7.847  1.00  0.00    +0.099 C 
ATOM     37  C   UNL     1     -35.216 150.373   5.458  1.00  0.00    +0.099 C 
ATOM     38  N   UNL     1     -35.956 149.679   6.529  1.00  0.00    -0.304 NA
ATOM     39  C   UNL     1     -35.926 148.233   6.352  1.00  0.00    +0.105 C 
ENDBRANCH  32  33
ENDBRANCH  31  32
ENDBRANCH   2  26
TORSDOF 7
ENDMDL
MODEL 2
REMARK VINA RESULT:   -11.035      2.346     12.863
REMARK INTER + INTRA:         -16.303
REMARK INTER:                 -15.699
REMARK INTRA:                  -0.604
REMARK UNBOUND:                -0.752
REMARK SMILES Cc1ccc(NC(=O)c2ccc(CN3CCN(C)CC3)cc2)cc1Nc1nccc(-c2cccnc2)n1
REMARK SMILES IDX 6 1 7 2 8 3 5 5 2 6 3 7 24 8 4 9 23 10 1 11 25 12 26 14
REMARK SMILES IDX 27 15 37 16 28 17 30 18 29 19 31 20 32 21 36 22 33 23 35 24
REMARK SMILES IDX 34 25 9 26 10 27 22 28 11 29 21 30 12 31 13 32 14 33 15 34
REMARK SMILES IDX 20 35 16 36 19 37 17 38 18 39
REMARK H PARENT 6 4 25 13
ROOT
ATOM      1  N   UNL     1     -39.651 160.805  -1.441  1.00  0.00    -0.322 N 
ATOM      2  C   UNL     1     -39.206 162.113  -1.454  1.00  0.00    +0.255 C 
ATOM      3  O   UNL     1     -38.954 162.818  -0.484  1.00  0.00    -0.269 OA
ATOM      4  H   UNL     1     -39.604 160.301  -2.317  1.00  0.00    +0.170 HD
ENDROOT
BRANCH   1   5
ATOM      5  C   UNL     1     -40.050 160.045  -0.321  1.00  0.00    +0.043 A 
ATOM      6  C   UNL     1     -40.988 158.636   1.930  1.00  0.00    -0.027 A 
ATOM      7  C   UNL     1     -41.762 159.650   1.345  1.00  0.00    +0.008 A 
ATOM      8  C   UNL     1     -39.725 158.310   1.384  1.00  0.00    +0.046 A 
ATOM      9  C   UNL     1     -41.294 160.350   0.236  1.00  0.00    +0.026 A 
ATOM     10  C   UNL     1     -39.275 159.039   0.267  1.00  0.00    +0.052 A 
ATOM     11  C   UNL     1     -41.533 157.926   3.141  1.00  0.00    +0.046 C 
BRANCH   8  12
ATOM     12  N   UNL     1     -38.934 157.335   2.015  1.00  0.00    -0.324 N 
ATOM     13  H   UNL     1     -38.763 156.483   1.504  1.00  0.00    +0.170 HD
BRANCH  12  14
ATOM     14  C   UNL     1     -38.185 157.303   3.187  1.00  0.00    +0.227 A 
ATOM     15  N   UNL     1     -37.754 158.503   3.609  1.00  0.00    -0.221 NA
ATOM     16  N   UNL     1     -37.879 156.157   3.806  1.00  0.00    -0.213 NA
ATOM     17  C   UNL     1     -37.001 158.526   4.721  1.00  0.00    +0.117 A 
ATOM     18  C   UNL     1     -37.110 156.203   4.916  1.00  0.00    +0.077 A 
ATOM     19  C   UNL     1     -36.645 157.400   5.420  1.00  0.00    +0.049 A 
BRANCH  18  20
ATOM     20  C   UNL     1     -36.821 154.903   5.545  1.00  0.00    +0.019 A 
ATOM     21  C   UNL     1     -37.459 153.728   5.128  1.00  0.00    +0.013 A 
ATOM     22  C   UNL     1     -35.899 154.751   6.582  1.00  0.00    +0.121 A 
ATOM     23  C   UNL     1     -37.179 152.506   5.737  1.00  0.00    +0.021 A 
ATOM     24  N   UNL     1     -35.604 153.581   7.205  1.00  0.00    -0.264 NA
ATOM     25  C   UNL     1     -36.253 152.484   6.763  1.00  0.00    +0.111 A 
ENDBRANCH  18  20
ENDBRANCH  12  14
ENDBRANCH   8  12
ENDBRANCH   1   5
BRANCH   2  26
ATOM     26  C   UNL     1     -38.958 162.673  -2.813  1.00  0.00    +0.040 A 
ATOM     27  C   UNL     1     -38.962 161.862  -3.953  1.00  0.00    +0.014 A 
ATOM     28  C   UNL     1     -38.752 164.050  -2.942  1.00  0.00    +0.014 A 
ATOM     29  C   UNL     1     -38.731 162.426  -5.211  1.00  0.00    +0.006 A 
ATOM     30  C   UNL     1     -38.520 164.610  -4.201  1.00  0.00    +0.006 A 
ATOM     31  C   UNL     1     -38.497 163.803  -5.348  1.00  0.00    -0.034 A 
BRANCH  31  32
ATOM     32  C   UNL     1     -38.251 164.412  -6.715  1.00  0.00    +0.120 C 
BRANCH  32  33
ATOM     33  N   UNL     1     -38.020 163.482  -7.817  1.00  0.00    -0.297 NA
ATOM     34  C   UNL     1     -36.816 162.651  -7.693  1.00  0.00    +0.100 C 
ATOM     35  C   UNL     1     -38.166 164.037  -9.160  1.00  0.00    +0.100 C 
ATOM     36  C   UNL     1     -36.389 161.932  -9.004  1.00  0.00    +0.099 C 
ATOM     37  C   UNL     1     -38.197 162.937 -10.258  1.00  0.00    +0.099 C 
ATOM     38  N   UNL     1     -37.519 161.675  -9.902  1.00  0.00    -0.304 NA
ATOM     39  C   UNL     1     -37.120 160.928 -11.088  1.00  0.00    +0.105 C 
ENDBRANCH  32  33
ENDBRANCH  31  32
ENDBRANCH   2  26
TORSDOF 7
ENDMDL
MODEL 3
REMARK VINA RESULT:   -10.429      2.485     12.587
REMARK INTER + INTRA:         -15.449
REMARK INTER:                 -14.899
REMARK INTRA:                  -0.550
REMARK UNBOUND:                -0.752
REMARK SMILES Cc1ccc(NC(=O)c2ccc(CN3CCN(C)CC3)cc2)cc1Nc1nccc(-c2cccnc2)n1
REMARK SMILES IDX 6 1 7 2 8 3 5 5 2 6 3 7 24 8 4 9 23 10 1 11 25 12 26 14
REMARK SMILES IDX 27 15 37 16 28 17 30 18 29 19 31 20 32 21 36 22 33 23 35 24
REMARK SMILES IDX 34 25 9 26 10 27 22 28 11 29 21 30 12 31 13 32 14 33 15 34
REMARK SMILES IDX 20 35 16 36 19 37 17 38 18 39
REMARK H PARENT 6 4 25 13
ROOT
ATOM      1  N   UNL     1     -37.532 157.825   2.395  1.00  0.00    -0.322 N 
ATOM      2  C   UNL     1     -38.764 158.360   2.069  1.00  0.00    +0.255 C 
ATOM      3  O   UNL     1     -39.697 158.585   2.830  1.00  0.00    -0.269 OA
ATOM      4  H   UNL     1     -36.805 157.905   1.697  1.00  0.00    +0.170 HD
ENDROOT
BRANCH   1   5
ATOM      5  C   UNL     1     -37.130 157.290   3.637  1.00  0.00    +0.043 A 
ATOM      6  C   UNL     1     -36.198 156.346   6.121  1.00  0.00    -0.027 A 
ATOM      7  C   UNL     1     -35.679 157.523   5.561  1.00  0.00    +0.008 A 
ATOM      8  C   UNL     1     -37.205 155.625   5.438  1.00  0.00    +0.046 A 
ATOM      9  C   UNL     1     -36.136 157.984   4.329  1.00  0.00    +0.026 A 
ATOM     10  C   UNL     1     -37.643 156.112   4.191  1.00  0.00    +0.052 A 
ATOM     11  C   UNL     1     -35.653 155.879   7.445  1.00  0.00    +0.046 C 
BRANCH   8  12
ATOM     12  N   UNL     1     -37.673 154.417   5.980  1.00  0.00    -0.324 N 
ATOM     13  H   UNL     1     -38.475 154.468   6.590  1.00  0.00    +0.170 HD
BRANCH  12  14
ATOM     14  C   UNL     1     -37.364 153.076   5.775  1.00  0.00    +0.227 A 
ATOM     15  N   UNL     1     -36.083 152.753   6.019  1.00  0.00    -0.221 NA
ATOM     16  N   UNL     1     -38.265 152.198   5.319  1.00  0.00    -0.213 NA
ATOM     17  C   UNL     1     -35.723 151.476   5.809  1.00  0.00    +0.117 A 
ATOM     18  C   UNL     1     -37.877 150.921   5.103  1.00  0.00    +0.077 A 
ATOM     19  C   UNL     1     -36.583 150.511   5.348  1.00  0.00    +0.049 A 
BRANCH  18  20
ATOM     20  C   UNL     1     -38.925 150.013   4.608  1.00  0.00    +0.019 A 
ATOM     21  C   UNL     1     -40.132 150.498   4.087  1.00  0.00    +0.013 A 
ATOM     22  C   UNL     1     -38.790 148.623   4.616  1.00  0.00    +0.121 A 
ATOM     23  C   UNL     1     -41.116 149.626   3.627  1.00  0.00    +0.021 A 
ATOM     24  N   UNL     1     -39.728 147.741   4.185  1.00  0.00    -0.264 NA
ATOM     25  C   UNL     1     -40.870 148.268   3.698  1.00  0.00    +0.111 A 
ENDBRANCH  18  20
ENDBRANCH  12  14
ENDBRANCH   8  12
ENDBRANCH   1   5
BRANCH   2  26
ATOM     26  C   UNL     1     -38.915 158.750   0.638  1.00  0.00    +0.040 A 
ATOM     27  C   UNL     1     -39.719 159.828   0.251  1.00  0.00    +0.014 A 
ATOM     28  C   UNL     1     -38.203 158.033  -0.329  1.00  0.00    +0.014 A 
ATOM     29  C   UNL     1     -39.831 160.165  -1.100  1.00  0.00    +0.006 A 
ATOM     30  C   UNL     1     -38.318 158.374  -1.680  1.00  0.00    +0.006 A 
ATOM     31  C   UNL     1     -39.141 159.436  -2.082  1.00  0.00    -0.034 A 
BRANCH  31  32
ATOM     32  C   UNL     1     -39.260 159.807  -3.547  1.00  0.00    +0.120 C 
BRANCH  32  33
ATOM     33  N   UNL     1     -38.706 161.099  -3.944  1.00  0.00    -0.297 NA
ATOM     34  C   UNL     1     -39.262 162.262  -3.242  1.00  0.00    +0.100 C 
ATOM     35  C   UNL     1     -38.597 161.330  -5.383  1.00  0.00    +0.100 C 
ATOM     36  C   UNL     1     -38.936 163.632  -3.900  1.00  0.00    +0.099 C 
ATOM     37  C   UNL     1     -37.739 162.582  -5.721  1.00  0.00    +0.099 C 
ATOM     38  N   UNL     1     -37.684 163.610  -4.664  1.00  0.00    -0.304 NA
ATOM     39  C   UNL     1     -37.348 164.919  -5.206  1.00  0.00    +0.105 C 
ENDBRANCH  32  33
ENDBRANCH  31  32
ENDBRANCH   2  26
TORSDOF 7
ENDMDL
MODEL 4
REMARK VINA RESULT:   -10.296      1.726     13.318
REMARK INTER + INTRA:         -15.261
REMARK INTER:                 -14.736
REMARK INTRA:                  -0.526
REMARK UNBOUND:                -0.752
REMARK SMILES Cc1ccc(NC(=O)c2ccc(CN3CCN(C)CC3)cc2)cc1Nc1nccc(-c2cccnc2)n1
REMARK SMILES IDX 6 1 7 2 8 3 5 5 2 6 3 7 24 8 4 9 23 10 1 11 25 12 26 14
REMARK SMILES IDX 27 15 37 16 28 17 30 18 29 19 31 20 32 21 36 22 33 23 35 24
REMARK SMILES IDX 34 25 9 26 10 27 22 28 11 29 21 30 12 31 13 32 14 33 15 34
REMARK SMILES IDX 20 35 16 36 19 37 17 38 18 39
REMARK H PARENT 6 4 25 13
ROOT
ATOM      1  N   UNL     1     -37.786 157.943   2.394  1.00  0.00    -0.322 N 
ATOM      2  C   UNL     1     -39.027 158.336   1.929  1.00  0.00    +0.255 C 
ATOM      3  O   UNL     1     -40.056 158.459   2.581  1.00  0.00    -0.269 OA
ATOM      4  H   UNL     1     -37.000 158.101   1.777  1.00  0.00    +0.170 HD
ENDROOT
BRANCH   1   5
ATOM      5  C   UNL     1     -37.465 157.459   3.680  1.00  0.00    +0.043 A 
ATOM      6  C   UNL     1     -36.769 156.658   6.288  1.00  0.00    -0.027 A 
ATOM      7  C   UNL     1     -36.720 158.010   5.917  1.00  0.00    +0.008 A 
ATOM      8  C   UNL     1     -37.176 155.682   5.348  1.00  0.00    +0.046 A 
ATOM      9  C   UNL     1     -37.059 158.403   4.624  1.00  0.00    +0.026 A 
ATOM     10  C   UNL     1     -37.506 156.109   4.047  1.00  0.00    +0.052 A 
ATOM     11  C   UNL     1     -36.371 156.284   7.692  1.00  0.00    +0.046 C 
BRANCH   8  12
ATOM     12  N   UNL     1     -37.163 154.327   5.715  1.00  0.00    -0.324 N 
ATOM     13  H   UNL     1     -38.055 153.864   5.793  1.00  0.00    +0.170 HD
BRANCH  12  14
ATOM     14  C   UNL     1     -36.160 153.378   5.887  1.00  0.00    +0.227 A 
ATOM     15  N   UNL     1     -35.089 153.544   5.094  1.00  0.00    -0.221 NA
ATOM     16  N   UNL     1     -36.285 152.354   6.740  1.00  0.00    -0.213 NA
ATOM     17  C   UNL     1     -34.102 152.639   5.199  1.00  0.00    +0.117 A 
ATOM     18  C   UNL     1     -35.286 151.449   6.820  1.00  0.00    +0.077 A 
ATOM     19  C   UNL     1     -34.147 151.564   6.050  1.00  0.00    +0.049 A 
BRANCH  18  20
ATOM     20  C   UNL     1     -35.493 150.355   7.784  1.00  0.00    +0.019 A 
ATOM     21  C   UNL     1     -35.147 150.491   9.135  1.00  0.00    +0.013 A 
ATOM     22  C   UNL     1     -36.048 149.125   7.427  1.00  0.00    +0.121 A 
ATOM     23  C   UNL     1     -35.344 149.445  10.034  1.00  0.00    +0.021 A 
ATOM     24  N   UNL     1     -36.249 148.079   8.271  1.00  0.00    -0.264 NA
ATOM     25  C   UNL     1     -35.892 148.269   9.559  1.00  0.00    +0.111 A 
ENDBRANCH  18  20
ENDBRANCH  12  14
ENDBRANCH   8  12
ENDBRANCH   1   5
BRANCH   2  26
ATOM     26  C   UNL     1     -39.063 158.703   0.485  1.00  0.00    +0.040 A 
ATOM     27  C   UNL     1     -38.238 158.073  -0.454  1.00  0.00    +0.014 A 
ATOM     28  C   UNL     1     -39.974 159.677   0.064  1.00  0.00    +0.014 A 
ATOM     29  C   UNL     1     -38.305 158.441  -1.800  1.00  0.00    +0.006 A 
ATOM     30  C   UNL     1     -40.037 160.043  -1.283  1.00  0.00    +0.006 A 
ATOM     31  C   UNL     1     -39.197 159.437  -2.229  1.00  0.00    -0.034 A 
BRANCH  31  32
ATOM     32  C   UNL     1     -39.271 159.831  -3.691  1.00  0.00    +0.120 C 
BRANCH  32  33
ATOM     33  N   UNL     1     -38.724 161.137  -4.048  1.00  0.00    -0.297 NA
ATOM     34  C   UNL     1     -39.244 162.267  -3.269  1.00  0.00    +0.100 C 
ATOM     35  C   UNL     1     -38.670 161.436  -5.477  1.00  0.00    +0.100 C 
ATOM     36  C   UNL     1     -38.936 163.666  -3.873  1.00  0.00    +0.099 C 
ATOM     37  C   UNL     1     -37.818 162.699  -5.788  1.00  0.00    +0.099 C 
ATOM     38  N   UNL     1     -37.715 163.674  -4.686  1.00  0.00    -0.304 NA
ATOM     39  C   UNL     1     -37.391 165.007  -5.177  1.00  0.00    +0.105 C 
ENDBRANCH  32  33
ENDBRANCH  31  32
ENDBRANCH   2  26
TORSDOF 7
ENDMDL
MODEL 5
REMARK VINA RESULT:   -10.290      6.215     10.970
REMARK INTER + INTRA:         -15.253
REMARK INTER:                 -14.413
REMARK INTRA:                  -0.840
REMARK UNBOUND:                -0.752
REMARK SMILES Cc1ccc(NC(=O)c2ccc(CN3CCN(C)CC3)cc2)cc1Nc1nccc(-c2cccnc2)n1
REMARK SMILES IDX 6 1 7 2 8 3 5 5 2 6 3 7 24 8 4 9 23 10 1 11 25 12 26 14
REMARK SMILES IDX 27 15 37 16 28 17 30 18 29 19 31 20 32 21 36 22 33 23 35 24
REMARK SMILES IDX 34 25 9 26 10 27 22 28 11 29 21 30 12 31 13 32 14 33 15 34
REMARK SMILES IDX 20 35 16 36 19 37 17 38 18 39
REMARK H PARENT 6 4 25 13
ROOT
ATOM      1  N   UNL     1     -37.847 161.730  -6.258  1.00  0.00    -0.322 N 
ATOM      2  C   UNL     1     -38.828 161.024  -5.586  1.00  0.00    +0.255 C 
ATOM      3  O   UNL     1     -39.658 160.268  -6.073  1.00  0.00    -0.269 OA
ATOM      4  H   UNL     1     -37.113 162.136  -5.692  1.00  0.00    +0.170 HD
ENDROOT
BRANCH   1   5
ATOM      5  C   UNL     1     -37.677 161.849  -7.654  1.00  0.00    +0.043 A 
ATOM      6  C   UNL     1     -37.445 162.230 -10.434  1.00  0.00    -0.027 A 
ATOM      7  C   UNL     1     -38.095 163.180  -9.632  1.00  0.00    +0.008 A 
ATOM      8  C   UNL     1     -36.894 161.069  -9.844  1.00  0.00    +0.046 A 
ATOM      9  C   UNL     1     -38.215 162.987  -8.258  1.00  0.00    +0.026 A 
ATOM     10  C   UNL     1     -37.036 160.897  -8.454  1.00  0.00    +0.052 A 
ATOM     11  C   UNL     1     -37.363 162.478 -11.917  1.00  0.00    +0.046 C 
BRANCH   8  12
ATOM     12  N   UNL     1     -36.299 160.097 -10.666  1.00  0.00    -0.324 N 
ATOM     13  H   UNL     1     -35.712 160.428 -11.416  1.00  0.00    +0.170 HD
BRANCH  12  14
ATOM     14  C   UNL     1     -36.216 158.709 -10.623  1.00  0.00    +0.227 A 
ATOM     15  N   UNL     1     -37.384 158.085 -10.397  1.00  0.00    -0.221 NA
ATOM     16  N   UNL     1     -35.052 158.060 -10.745  1.00  0.00    -0.213 NA
ATOM     17  C   UNL     1     -37.356 156.744 -10.318  1.00  0.00    +0.117 A 
ATOM     18  C   UNL     1     -35.046 156.713 -10.649  1.00  0.00    +0.077 A 
ATOM     19  C   UNL     1     -36.209 156.001 -10.436  1.00  0.00    +0.049 A 
BRANCH  18  20
ATOM     20  C   UNL     1     -33.730 156.070 -10.800  1.00  0.00    +0.019 A 
ATOM     21  C   UNL     1     -32.539 156.801 -10.702  1.00  0.00    +0.013 A 
ATOM     22  C   UNL     1     -33.577 154.703 -11.042  1.00  0.00    +0.121 A 
ATOM     23  C   UNL     1     -31.302 156.180 -10.852  1.00  0.00    +0.021 A 
ATOM     24  N   UNL     1     -32.390 154.062 -11.201  1.00  0.00    -0.264 NA
ATOM     25  C   UNL     1     -31.279 154.820 -11.100  1.00  0.00    +0.111 A 
ENDBRANCH  18  20
ENDBRANCH  12  14
ENDBRANCH   8  12
ENDBRANCH   1   5
BRANCH   2  26
ATOM     26  C   UNL     1     -38.801 161.178  -4.104  1.00  0.00    +0.040 A 
ATOM     27  C   UNL     1     -39.170 162.377  -3.483  1.00  0.00    +0.014 A 
ATOM     28  C   UNL     1     -38.430 160.079  -3.324  1.00  0.00    +0.014 A 
ATOM     29  C   UNL     1     -39.137 162.480  -2.090  1.00  0.00    +0.006 A 
ATOM     30  C   UNL     1     -38.397 160.187  -1.930  1.00  0.00    +0.006 A 
ATOM     31  C   UNL     1     -38.741 161.391  -1.298  1.00  0.00    -0.034 A 
BRANCH  31  32
ATOM     32  C   UNL     1     -38.710 161.504   0.213  1.00  0.00    +0.120 C 
BRANCH  32  33
ATOM     33  N   UNL     1     -39.622 160.638   0.955  1.00  0.00    -0.297 NA
ATOM     34  C   UNL     1     -38.994 159.487   1.615  1.00  0.00    +0.100 C 
ATOM     35  C   UNL     1     -40.854 160.267   0.263  1.00  0.00    +0.100 C 
ATOM     36  C   UNL     1     -39.990 158.394   2.096  1.00  0.00    +0.099 C 
ATOM     37  C   UNL     1     -41.891 159.600   1.210  1.00  0.00    +0.099 C 
ATOM     38  N   UNL     1     -41.320 158.934   2.396  1.00  0.00    -0.304 NA
ATOM     39  C   UNL     1     -42.220 157.916   2.925  1.00  0.00    +0.105 C 
ENDBRANCH  32  33
ENDBRANCH  31  32
ENDBRANCH   2  26
TORSDOF 7
ENDMDL
MODEL 6
REMARK VINA RESULT:    -9.970      1.842      3.337
REMARK INTER + INTRA:         -14.802
REMARK INTER:                 -15.519
REMARK INTRA:                   0.717
REMARK UNBOUND:                -0.752
REMARK SMILES Cc1ccc(NC(=O)c2ccc(CN3CCN(C)CC3)cc2)cc1Nc1nccc(-c2cccnc2)n1
REMARK SMILES IDX 6 1 7 2 8 3 5 5 2 6 3 7 24 8 4 9 23 10 1 11 25 12 26 14
REMARK SMILES IDX 27 15 37 16 28 17 30 18 29 19 31 20 32 21 36 22 33 23 35 24
REMARK SMILES IDX 34 25 9 26 10 27 22 28 11 29 21 30 12 31 13 32 14 33 15 34
REMARK SMILES IDX 20 35 16 36 19 37 17 38 18 39
REMARK H PARENT 6 4 25 13
ROOT
ATOM      1  N   UNL     1     -38.116 158.211   0.885  1.00  0.00    -0.322 N 
ATOM      2  C   UNL     1     -38.588 158.571   2.133  1.00  0.00    +0.255 C 
ATOM      3  O   UNL     1     -39.498 159.351   2.383  1.00  0.00    -0.269 OA
ATOM      4  H   UNL     1     -37.513 157.400   0.845  1.00  0.00    +0.170 HD
ENDROOT
BRANCH   1   5
ATOM      5  C   UNL     1     -38.475 158.767  -0.362  1.00  0.00    +0.043 A 
ATOM      6  C   UNL     1     -39.159 159.716  -2.923  1.00  0.00    -0.027 A 
ATOM      7  C   UNL     1     -38.897 158.354  -2.710  1.00  0.00    +0.008 A 
ATOM      8  C   UNL     1     -39.086 160.625  -1.843  1.00  0.00    +0.046 A 
ATOM      9  C   UNL     1     -38.552 157.887  -1.443  1.00  0.00    +0.026 A 
ATOM     10  C   UNL     1     -38.729 160.126  -0.575  1.00  0.00    +0.052 A 
ATOM     11  C   UNL     1     -39.505 160.170  -4.317  1.00  0.00    +0.046 C 
BRANCH   8  12
ATOM     12  N   UNL     1     -39.291 161.994  -2.082  1.00  0.00    -0.324 N 
ATOM     13  H   UNL     1     -39.800 162.511  -1.380  1.00  0.00    +0.170 HD
BRANCH  12  14
ATOM     14  C   UNL     1     -38.835 162.891  -3.042  1.00  0.00    +0.227 A 
ATOM     15  N   UNL     1     -38.882 164.181  -2.672  1.00  0.00    -0.221 NA
ATOM     16  N   UNL     1     -38.434 162.492  -4.256  1.00  0.00    -0.213 NA
ATOM     17  C   UNL     1     -38.479 165.091  -3.574  1.00  0.00    +0.117 A 
ATOM     18  C   UNL     1     -38.045 163.427  -5.151  1.00  0.00    +0.077 A 
ATOM     19  C   UNL     1     -38.049 164.771  -4.836  1.00  0.00    +0.049 A 
BRANCH  18  20
ATOM     20  C   UNL     1     -37.612 162.913  -6.461  1.00  0.00    +0.019 A 
ATOM     21  C   UNL     1     -36.828 161.757  -6.574  1.00  0.00    +0.013 A 
ATOM     22  C   UNL     1     -37.953 163.527  -7.667  1.00  0.00    +0.121 A 
ATOM     23  C   UNL     1     -36.421 161.286  -7.820  1.00  0.00    +0.021 A 
ATOM     24  N   UNL     1     -37.571 163.104  -8.900  1.00  0.00    -0.264 NA
ATOM     25  C   UNL     1     -36.813 161.988  -8.944  1.00  0.00    +0.111 A 
ENDBRANCH  18  20
ENDBRANCH  12  14
ENDBRANCH   8  12
ENDBRANCH   1   5
BRANCH   2  26
ATOM     26  C   UNL     1     -37.936 157.865   3.273  1.00  0.00    +0.040 A 
ATOM     27  C   UNL     1     -37.368 158.566   4.342  1.00  0.00    +0.014 A 
ATOM     28  C   UNL     1     -37.930 156.466   3.278  1.00  0.00    +0.014 A 
ATOM     29  C   UNL     1     -36.770 157.867   5.395  1.00  0.00    +0.006 A 
ATOM     30  C   UNL     1     -37.330 155.772   4.332  1.00  0.00    +0.006 A 
ATOM     31  C   UNL     1     -36.734 156.464   5.397  1.00  0.00    -0.034 A 
BRANCH  31  32
ATOM     32  C   UNL     1     -36.089 155.709   6.543  1.00  0.00    +0.120 C 
BRANCH  32  33
ATOM     33  N   UNL     1     -35.794 154.297   6.315  1.00  0.00    -0.297 NA
ATOM     34  C   UNL     1     -36.662 153.353   7.029  1.00  0.00    +0.100 C 
ATOM     35  C   UNL     1     -34.385 153.919   6.402  1.00  0.00    +0.100 C 
ATOM     36  C   UNL     1     -36.135 151.890   7.066  1.00  0.00    +0.099 C 
ATOM     37  C   UNL     1     -34.121 152.484   5.865  1.00  0.00    +0.099 C 
ATOM     38  N   UNL     1     -35.277 151.569   5.921  1.00  0.00    -0.304 NA
ATOM     39  C   UNL     1     -34.857 150.173   5.923  1.00  0.00    +0.105 C 
ENDBRANCH  32  33
ENDBRANCH  31  32
ENDBRANCH   2  26
TORSDOF 7
ENDMDL
MODEL 7
REMARK VINA RESULT:    -9.913      2.643     13.657
REMARK INTER + INTRA:         -14.721
REMARK INTER:                 -14.631
REMARK INTRA:                  -0.090
REMARK UNBOUND:                -0.752
REMARK SMILES Cc1ccc(NC(=O)c2ccc(CN3CCN(C)CC3)cc2)cc1Nc1nccc(-c2cccnc2)n1
REMARK SMILES IDX 6 1 7 2 8 3 5 5 2 6 3 7 24 8 4 9 23 10 1 11 25 12 26 14
REMARK SMILES IDX 27 15 37 16 28 17 30 18 29 19 31 20 32 21 36 22 33 23 35 24
REMARK SMILES IDX 34 25 9 26 10 27 22 28 11 29 21 30 12 31 13 32 14 33 15 34
REMARK SMILES IDX 20 35 16 36 19 37 17 38 18 39
REMARK H PARENT 6 4 25 13
ROOT
ATOM      1  N   UNL     1     -38.970 160.501  -2.546  1.00  0.00    -0.322 N 
ATOM      2  C   UNL     1     -38.955 161.816  -2.971  1.00  0.00    +0.255 C 
ATOM      3  O   UNL     1     -39.213 162.811  -2.306  1.00  0.00    -0.269 OA
ATOM      4  H   UNL     1     -38.527 159.824  -3.152  1.00  0.00    +0.170 HD
ENDROOT
BRANCH   1   5
ATOM      5  C   UNL     1     -39.422 160.005  -1.304  1.00  0.00    +0.043 A 
ATOM      6  C   UNL     1     -40.443 159.149   1.176  1.00  0.00    -0.027 A 
ATOM      7  C   UNL     1     -41.069 160.181   0.461  1.00  0.00    +0.008 A 
ATOM      8  C   UNL     1     -39.289 158.524   0.648  1.00  0.00    +0.046 A 
ATOM      9  C   UNL     1     -40.559 160.608  -0.762  1.00  0.00    +0.026 A 
ATOM     10  C   UNL     1     -38.792 158.981  -0.588  1.00  0.00    +0.052 A 
ATOM     11  C   UNL     1     -41.023 158.741   2.506  1.00  0.00    +0.046 C 
BRANCH   8  12
ATOM     12  N   UNL     1     -38.637 157.535   1.402  1.00  0.00    -0.324 N 
ATOM     13  H   UNL     1     -38.423 156.668   0.933  1.00  0.00    +0.170 HD
BRANCH  12  14
ATOM     14  C   UNL     1     -38.070 157.498   2.672  1.00  0.00    +0.227 A 
ATOM     15  N   UNL     1     -37.660 158.689   3.137  1.00  0.00    -0.221 NA
ATOM     16  N   UNL     1     -37.903 156.353   3.345  1.00  0.00    -0.213 NA
ATOM     17  C   UNL     1     -37.079 158.706   4.348  1.00  0.00    +0.117 A 
ATOM     18  C   UNL     1     -37.305 156.393   4.556  1.00  0.00    +0.077 A 
ATOM     19  C   UNL     1     -36.873 157.582   5.107  1.00  0.00    +0.049 A 
BRANCH  18  20
ATOM     20  C   UNL     1     -37.162 155.096   5.238  1.00  0.00    +0.019 A 
ATOM     21  C   UNL     1     -36.626 155.000   6.529  1.00  0.00    +0.013 A 
ATOM     22  C   UNL     1     -37.550 153.887   4.657  1.00  0.00    +0.121 A 
ATOM     23  C   UNL     1     -36.491 153.764   7.159  1.00  0.00    +0.021 A 
ATOM     24  N   UNL     1     -37.428 152.663   5.235  1.00  0.00    -0.264 NA
ATOM     25  C   UNL     1     -36.901 152.635   6.477  1.00  0.00    +0.111 A 
ENDBRANCH  18  20
ENDBRANCH  12  14
ENDBRANCH   8  12
ENDBRANCH   1   5
BRANCH   2  26
ATOM     26  C   UNL     1     -38.514 162.009  -4.382  1.00  0.00    +0.040 A 
ATOM     27  C   UNL     1     -37.746 163.114  -4.766  1.00  0.00    +0.014 A 
ATOM     28  C   UNL     1     -38.852 161.036  -5.328  1.00  0.00    +0.014 A 
ATOM     29  C   UNL     1     -37.346 163.257  -6.098  1.00  0.00    +0.006 A 
ATOM     30  C   UNL     1     -38.451 161.184  -6.659  1.00  0.00    +0.006 A 
ATOM     31  C   UNL     1     -37.703 162.300  -7.061  1.00  0.00    -0.034 A 
BRANCH  31  32
ATOM     32  C   UNL     1     -37.264 162.455  -8.504  1.00  0.00    +0.120 C 
BRANCH  32  33
ATOM     33  N   UNL     1     -37.083 163.819  -8.992  1.00  0.00    -0.297 NA
ATOM     34  C   UNL     1     -38.241 164.705  -8.821  1.00  0.00    +0.100 C 
ATOM     35  C   UNL     1     -36.489 163.947 -10.321  1.00  0.00    +0.100 C 
ATOM     36  C   UNL     1     -38.176 166.023  -9.642  1.00  0.00    +0.099 C 
ATOM     37  C   UNL     1     -36.061 165.407 -10.643  1.00  0.00    +0.099 C 
ATOM     38  N   UNL     1     -36.799 166.454  -9.911  1.00  0.00    -0.304 NA
ATOM     39  C   UNL     1     -36.750 167.732 -10.609  1.00  0.00    +0.105 C 
ENDBRANCH  32  33
ENDBRANCH  31  32
ENDBRANCH   2  26
TORSDOF 7
ENDMDL
MODEL 8
REMARK VINA RESULT:    -9.844      3.422      6.260
REMARK INTER + INTRA:         -14.625
REMARK INTER:                 -13.614
REMARK INTRA:                  -1.011
REMARK UNBOUND:                -0.752
REMARK SMILES Cc1ccc(NC(=O)c2ccc(CN3CCN(C)CC3)cc2)cc1Nc1nccc(-c2cccnc2)n1
REMARK SMILES IDX 6 1 7 2 8 3 5 5 2 6 3 7 24 8 4 9 23 10 1 11 25 12 26 14
REMARK SMILES IDX 27 15 37 16 28 17 30 18 29 19 31 20 32 21 36 22 33 23 35 24
REMARK SMILES IDX 34 25 9 26 10 27 22 28 11 29 21 30 12 31 13 32 14 33 15 34
REMARK SMILES IDX 20 35 16 36 19 37 17 38 18 39
REMARK H PARENT 6 4 25 13
ROOT
ATOM      1  N   UNL     1     -37.778 153.360   5.263  1.00  0.00    -0.322 N 
ATOM      2  C   UNL     1     -36.894 152.317   5.472  1.00  0.00    +0.255 C 
ATOM      3  O   UNL     1     -35.704 152.401   5.746  1.00  0.00    -0.269 OA
ATOM      4  H   UNL     1     -38.762 153.126   5.261  1.00  0.00    +0.170 HD
ENDROOT
BRANCH   1   5
ATOM      5  C   UNL     1     -37.477 154.736   5.178  1.00  0.00    +0.043 A 
ATOM      6  C   UNL     1     -36.859 157.483   5.184  1.00  0.00    -0.027 A 
ATOM      7  C   UNL     1     -36.760 156.723   6.359  1.00  0.00    +0.008 A 
ATOM      8  C   UNL     1     -37.268 156.867   3.979  1.00  0.00    +0.046 A 
ATOM      9  C   UNL     1     -37.072 155.366   6.356  1.00  0.00    +0.026 A 
ATOM     10  C   UNL     1     -37.584 155.495   4.007  1.00  0.00    +0.052 A 
ATOM     11  C   UNL     1     -36.530 158.951   5.249  1.00  0.00    +0.046 C 
BRANCH   8  12
ATOM     12  N   UNL     1     -37.422 157.651   2.823  1.00  0.00    -0.324 N 
ATOM     13  H   UNL     1     -36.617 157.745   2.223  1.00  0.00    +0.170 HD
BRANCH  12  14
ATOM     14  C   UNL     1     -38.506 158.264   2.204  1.00  0.00    +0.227 A 
ATOM     15  N   UNL     1     -39.661 158.179   2.883  1.00  0.00    -0.221 NA
ATOM     16  N   UNL     1     -38.406 158.843   1.001  1.00  0.00    -0.213 NA
ATOM     17  C   UNL     1     -40.747 158.730   2.316  1.00  0.00    +0.117 A 
ATOM     18  C   UNL     1     -39.514 159.380   0.444  1.00  0.00    +0.077 A 
ATOM     19  C   UNL     1     -40.733 159.347   1.091  1.00  0.00    +0.049 A 
BRANCH  18  20
ATOM     20  C   UNL     1     -39.324 160.003  -0.876  1.00  0.00    +0.019 A 
ATOM     21  C   UNL     1     -38.898 159.261  -1.985  1.00  0.00    +0.013 A 
ATOM     22  C   UNL     1     -39.559 161.359  -1.115  1.00  0.00    +0.121 A 
ATOM     23  C   UNL     1     -38.717 159.866  -3.226  1.00  0.00    +0.021 A 
ATOM     24  N   UNL     1     -39.388 161.987  -2.307  1.00  0.00    -0.264 NA
ATOM     25  C   UNL     1     -38.971 161.220  -3.336  1.00  0.00    +0.111 A 
ENDBRANCH  18  20
ENDBRANCH  12  14
ENDBRANCH   8  12
ENDBRANCH   1   5
BRANCH   2  26
ATOM     26  C   UNL     1     -37.507 150.960   5.408  1.00  0.00    +0.040 A 
ATOM     27  C   UNL     1     -36.724 149.800   5.409  1.00  0.00    +0.014 A 
ATOM     28  C   UNL     1     -38.901 150.856   5.382  1.00  0.00    +0.014 A 
ATOM     29  C   UNL     1     -37.337 148.545   5.353  1.00  0.00    +0.006 A 
ATOM     30  C   UNL     1     -39.509 149.598   5.326  1.00  0.00    +0.006 A 
ATOM     31  C   UNL     1     -38.734 148.430   5.301  1.00  0.00    -0.034 A 
BRANCH  31  32
ATOM     32  C   UNL     1     -39.396 147.066   5.245  1.00  0.00    +0.120 C 
BRANCH  32  33
ATOM     33  N   UNL     1     -40.199 146.679   6.402  1.00  0.00    -0.297 NA
ATOM     34  C   UNL     1     -39.459 146.017   7.484  1.00  0.00    +0.100 C 
ATOM     35  C   UNL     1     -41.458 145.999   6.105  1.00  0.00    +0.100 C 
ATOM     36  C   UNL     1     -40.353 145.302   8.536  1.00  0.00    +0.099 C 
ATOM     37  C   UNL     1     -42.380 145.885   7.351  1.00  0.00    +0.099 C 
ATOM     38  N   UNL     1     -41.684 145.907   8.652  1.00  0.00    -0.304 NA
ATOM     39  C   UNL     1     -42.483 145.282   9.698  1.00  0.00    +0.105 C 
ENDBRANCH  32  33
ENDBRANCH  31  32
ENDBRANCH   2  26
TORSDOF 7
ENDMDL
MODEL 9
REMARK VINA RESULT:    -9.838      4.014      7.932
REMARK INTER + INTRA:         -14.615
REMARK INTER:                 -13.697
REMARK INTRA:                  -0.918
REMARK UNBOUND:                -0.752
REMARK SMILES Cc1ccc(NC(=O)c2ccc(CN3CCN(C)CC3)cc2)cc1Nc1nccc(-c2cccnc2)n1
REMARK SMILES IDX 6 1 7 2 8 3 5 5 2 6 3 7 24 8 4 9 23 10 1 11 25 12 26 14
REMARK SMILES IDX 27 15 37 16 28 17 30 18 29 19 31 20 32 21 36 22 33 23 35 24
REMARK SMILES IDX 34 25 9 26 10 27 22 28 11 29 21 30 12 31 13 32 14 33 15 34
REMARK SMILES IDX 20 35 16 36 19 37 17 38 18 39
REMARK H PARENT 6 4 25 13
ROOT
ATOM      1  N   UNL     1     -38.486 161.822  -2.975  1.00  0.00    -0.322 N 
ATOM      2  C   UNL     1     -38.985 160.533  -2.948  1.00  0.00    +0.255 C 
ATOM      3  O   UNL     1     -39.293 159.839  -3.908  1.00  0.00    -0.269 OA
ATOM      4  H   UNL     1     -38.082 162.170  -2.116  1.00  0.00    +0.170 HD
ENDROOT
BRANCH   1   5
ATOM      5  C   UNL     1     -38.360 162.670  -4.096  1.00  0.00    +0.043 A 
ATOM      6  C   UNL     1     -38.238 164.464  -6.263  1.00  0.00    -0.027 A 
ATOM      7  C   UNL     1     -39.035 164.746  -5.143  1.00  0.00    +0.008 A 
ATOM      8  C   UNL     1     -37.481 163.270  -6.307  1.00  0.00    +0.046 A 
ATOM      9  C   UNL     1     -39.100 163.854  -4.075  1.00  0.00    +0.026 A 
ATOM     10  C   UNL     1     -37.571 162.385  -5.216  1.00  0.00    +0.052 A 
ATOM     11  C   UNL     1     -38.222 165.452  -7.400  1.00  0.00    +0.046 C 
BRANCH   8  12
ATOM     12  N   UNL     1     -36.735 162.972  -7.459  1.00  0.00    -0.324 N 
ATOM     13  H   UNL     1     -35.748 163.179  -7.432  1.00  0.00    +0.170 HD
BRANCH  12  14
ATOM     14  C   UNL     1     -37.012 162.310  -8.650  1.00  0.00    +0.227 A 
ATOM     15  N   UNL     1     -37.648 163.054  -9.570  1.00  0.00    -0.221 NA
ATOM     16  N   UNL     1     -36.713 161.019  -8.835  1.00  0.00    -0.213 NA
ATOM     17  C   UNL     1     -37.966 162.456 -10.729  1.00  0.00    +0.117 A 
ATOM     18  C   UNL     1     -37.053 160.434 -10.005  1.00  0.00    +0.077 A 
ATOM     19  C   UNL     1     -37.692 161.140 -11.004  1.00  0.00    +0.049 A 
BRANCH  18  20
ATOM     20  C   UNL     1     -36.687 159.014 -10.137  1.00  0.00    +0.019 A 
ATOM     21  C   UNL     1     -37.102 158.246 -11.233  1.00  0.00    +0.013 A 
ATOM     22  C   UNL     1     -35.904 158.342  -9.196  1.00  0.00    +0.121 A 
ATOM     23  C   UNL     1     -36.752 156.902 -11.340  1.00  0.00    +0.021 A 
ATOM     24  N   UNL     1     -35.548 157.033  -9.261  1.00  0.00    -0.264 NA
ATOM     25  C   UNL     1     -35.982 156.345 -10.338  1.00  0.00    +0.111 A 
ENDBRANCH  18  20
ENDBRANCH  12  14
ENDBRANCH   8  12
ENDBRANCH   1   5
BRANCH   2  26
ATOM     26  C   UNL     1     -39.086 159.933  -1.587  1.00  0.00    +0.040 A 
ATOM     27  C   UNL     1     -39.789 160.566  -0.556  1.00  0.00    +0.014 A 
ATOM     28  C   UNL     1     -38.488 158.690  -1.357  1.00  0.00    +0.014 A 
ATOM     29  C   UNL     1     -39.866 159.969   0.705  1.00  0.00    +0.006 A 
ATOM     30  C   UNL     1     -38.566 158.097  -0.094  1.00  0.00    +0.006 A 
ATOM     31  C   UNL     1     -39.247 158.734   0.954  1.00  0.00    -0.034 A 
BRANCH  31  32
ATOM     32  C   UNL     1     -39.335 158.087   2.322  1.00  0.00    +0.120 C 
BRANCH  32  33
ATOM     33  N   UNL     1     -38.081 157.631   2.915  1.00  0.00    -0.297 NA
ATOM     34  C   UNL     1     -38.072 156.234   3.365  1.00  0.00    +0.100 C 
ATOM     35  C   UNL     1     -37.480 158.527   3.901  1.00  0.00    +0.100 C 
ATOM     36  C   UNL     1     -36.885 155.861   4.297  1.00  0.00    +0.099 C 
ATOM     37  C   UNL     1     -36.023 158.121   4.263  1.00  0.00    +0.099 C 
ATOM     38  N   UNL     1     -35.701 156.695   4.066  1.00  0.00    -0.304 NA
ATOM     39  C   UNL     1     -34.569 156.282   4.886  1.00  0.00    +0.105 C 
ENDBRANCH  32  33
ENDBRANCH  31  32
ENDBRANCH   2  26
TORSDOF 7
ENDMDL
MODEL 10
REMARK VINA RESULT:    -9.741      3.655      6.395
REMARK INTER + INTRA:         -14.479
REMARK INTER:                 -13.413
REMARK INTRA:                  -1.065
REMARK UNBOUND:                -0.752
REMARK SMILES Cc1ccc(NC(=O)c2ccc(CN3CCN(C)CC3)cc2)cc1Nc1nccc(-c2cccnc2)n1
REMARK SMILES IDX 6 1 7 2 8 3 5 5 2 6 3 7 24 8 4 9 23 10 1 11 25 12 26 14
REMARK SMILES IDX 27 15 37 16 28 17 30 18 29 19 31 20 32 21 36 22 33 23 35 24
REMARK SMILES IDX 34 25 9 26 10 27 22 28 11 29 21 30 12 31 13 32 14 33 15 34
REMARK SMILES IDX 20 35 16 36 19 37 17 38 18 39
REMARK H PARENT 6 4 25 13
ROOT
ATOM      1  N   UNL     1     -37.844 153.379   5.391  1.00  0.00    -0.322 N 
ATOM      2  C   UNL     1     -36.966 152.314   5.463  1.00  0.00    +0.255 C 
ATOM      3  O   UNL     1     -35.747 152.366   5.567  1.00  0.00    -0.269 OA
ATOM      4  H   UNL     1     -38.824 153.169   5.525  1.00  0.00    +0.170 HD
ENDROOT
BRANCH   1   5
ATOM      5  C   UNL     1     -37.524 154.749   5.275  1.00  0.00    +0.043 A 
ATOM      6  C   UNL     1     -36.867 157.486   5.223  1.00  0.00    -0.027 A 
ATOM      7  C   UNL     1     -36.773 156.749   6.413  1.00  0.00    +0.008 A 
ATOM      8  C   UNL     1     -37.291 156.852   4.032  1.00  0.00    +0.046 A 
ATOM      9  C   UNL     1     -37.105 155.397   6.438  1.00  0.00    +0.026 A 
ATOM     10  C   UNL     1     -37.626 155.485   4.090  1.00  0.00    +0.052 A 
ATOM     11  C   UNL     1     -36.517 158.951   5.256  1.00  0.00    +0.046 C 
BRANCH   8  12
ATOM     12  N   UNL     1     -37.439 157.614   2.862  1.00  0.00    -0.324 N 
ATOM     13  H   UNL     1     -36.631 157.698   2.264  1.00  0.00    +0.170 HD
BRANCH  12  14
ATOM     14  C   UNL     1     -38.521 158.215   2.225  1.00  0.00    +0.227 A 
ATOM     15  N   UNL     1     -39.684 158.124   2.891  1.00  0.00    -0.221 NA
ATOM     16  N   UNL     1     -38.411 158.787   1.020  1.00  0.00    -0.213 NA
ATOM     17  C   UNL     1     -40.767 158.663   2.307  1.00  0.00    +0.117 A 
ATOM     18  C   UNL     1     -39.516 159.311   0.446  1.00  0.00    +0.077 A 
ATOM     19  C   UNL     1     -40.742 159.272   1.078  1.00  0.00    +0.049 A 
BRANCH  18  20
ATOM     20  C   UNL     1     -39.315 159.928  -0.875  1.00  0.00    +0.019 A 
ATOM     21  C   UNL     1     -38.843 159.189  -1.967  1.00  0.00    +0.013 A 
ATOM     22  C   UNL     1     -39.584 161.274  -1.133  1.00  0.00    +0.121 A 
ATOM     23  C   UNL     1     -38.652 159.788  -3.210  1.00  0.00    +0.021 A 
ATOM     24  N   UNL     1     -39.405 161.896  -2.327  1.00  0.00    -0.264 NA
ATOM     25  C   UNL     1     -38.943 161.133  -3.339  1.00  0.00    +0.111 A 
ENDBRANCH  18  20
ENDBRANCH  12  14
ENDBRANCH   8  12
ENDBRANCH   1   5
BRANCH   2  26
ATOM     26  C   UNL     1     -37.615 150.972   5.474  1.00  0.00    +0.040 A 
ATOM     27  C   UNL     1     -39.007 150.830   5.465  1.00  0.00    +0.014 A 
ATOM     28  C   UNL     1     -36.801 149.835   5.458  1.00  0.00    +0.014 A 
ATOM     29  C   UNL     1     -39.578 149.554   5.470  1.00  0.00    +0.006 A 
ATOM     30  C   UNL     1     -37.376 148.561   5.465  1.00  0.00    +0.006 A 
ATOM     31  C   UNL     1     -38.770 148.406   5.482  1.00  0.00    -0.034 A 
BRANCH  31  32
ATOM     32  C   UNL     1     -39.392 147.023   5.483  1.00  0.00    +0.120 C 
BRANCH  32  33
ATOM     33  N   UNL     1     -40.151 146.643   4.295  1.00  0.00    -0.297 NA
ATOM     34  C   UNL     1     -41.119 145.556   4.491  1.00  0.00    +0.100 C 
ATOM     35  C   UNL     1     -39.372 146.468   3.071  1.00  0.00    +0.100 C 
ATOM     36  C   UNL     1     -41.659 144.926   3.176  1.00  0.00    +0.099 C 
ATOM     37  C   UNL     1     -40.270 146.356   1.806  1.00  0.00    +0.099 C 
ATOM     38  N   UNL     1     -41.639 145.864   2.049  1.00  0.00    -0.304 NA
ATOM     39  C   UNL     1     -42.224 145.289   0.845  1.00  0.00    +0.105 C 
ENDBRANCH  32  33
ENDBRANCH  31  32
ENDBRANCH   2  26
TORSDOF 7
ENDMDL
