MODEL 1
REMARK VINA RESULT:   -12.145      0.000      0.000
REMARK INTER + INTRA:         -17.467
REMARK INTER:                 -17.114
REMARK INTRA:                  -0.353
REMARK UNBOUND:                -0.353
REMARK SMILES Cc1ccc(NC(=O)c2ccc(CN3CCN(C)CC3)cc2)cc1Nc1nccc(-c2cccnc2)n1
REMARK SMILES IDX 6 1 7 2 8 3 5 5 2 6 3 7 24 8 4 9 23 10 1 11 25 12 26 14
REMARK SMILES IDX 27 15 37 16 28 17 30 18 29 19 31 20 32 21 36 22 33 23 35 24
REMARK SMILES IDX 34 25 9 26 10 27 22 28 11 29 21 30 12 31 13 32 14 33 15 34
REMARK SMILES IDX 20 35 16 36 19 37 17 38 18 39
REMARK H PARENT 6 4 25 13
ROOT
ATOM      1  N   UNL     1     -39.215 157.685   3.394  1.00  0.00    -0.322 N 
ATOM      2  C   UNL     1     -37.860 157.481   3.210  1.00  0.00    +0.255 C 
ATOM      3  O   UNL     1     -37.151 157.978   2.343  1.00  0.00    -0.269 OA
ATOM      4  H   UNL     1     -39.628 157.307   4.237  1.00  0.00    +0.170 HD
ENDROOT
BRANCH   1   5
ATOM      5  C   UNL     1     -40.089 158.441   2.582  1.00  0.00    +0.043 A 
ATOM      6  C   UNL     1     -41.673 160.029   0.881  1.00  0.00    -0.027 A 
ATOM      7  C   UNL     1     -42.254 159.252   1.898  1.00  0.00    +0.008 A 
ATOM      8  C   UNL     1     -40.271 160.016   0.699  1.00  0.00    +0.046 A 
ATOM      9  C   UNL     1     -41.468 158.466   2.741  1.00  0.00    +0.026 A 
ATOM     10  C   UNL     1     -39.508 159.219   1.568  1.00  0.00    +0.052 A 
ATOM     11  C   UNL     1     -42.581 160.858   0.010  1.00  0.00    +0.046 C 
BRANCH   8  12
ATOM     12  N   UNL     1     -39.689 160.800  -0.308  1.00  0.00    -0.324 N 
ATOM     13  H   UNL     1     -39.419 161.740  -0.060  1.00  0.00    +0.170 HD
BRANCH  12  14
ATOM     14  C   UNL     1     -39.410 160.613  -1.659  1.00  0.00    +0.227 A 
ATOM     15  N   UNL     1     -39.353 159.400  -2.219  1.00  0.00    -0.221 NA
ATOM     16  N   UNL     1     -39.197 161.747  -2.347  1.00  0.00    -0.213 NA
ATOM     17  C   UNL     1     -39.069 159.338  -3.530  1.00  0.00    +0.117 A 
ATOM     18  C   UNL     1     -38.904 161.663  -3.665  1.00  0.00    +0.077 A 
ATOM     19  C   UNL     1     -38.834 160.444  -4.308  1.00  0.00    +0.049 A 
BRANCH  18  20
ATOM     20  C   UNL     1     -38.678 162.948  -4.350  1.00  0.00    +0.019 A 
ATOM     21  C   UNL     1     -38.316 163.045  -5.702  1.00  0.00    +0.013 A 
ATOM     22  C   UNL     1     -38.807 164.162  -3.672  1.00  0.00    +0.121 A 
ATOM     23  C   UNL     1     -38.118 164.292  -6.299  1.00  0.00    +0.021 A 
ATOM     24  N   UNL     1     -38.628 165.392  -4.223  1.00  0.00    -0.264 NA
ATOM     25  C   UNL     1     -38.286 165.425  -5.525  1.00  0.00    +0.111 A 
ENDBRANCH  18  20
ENDBRANCH  12  14
ENDBRANCH   8  12
ENDBRANCH   1   5
BRANCH   2  26
ATOM     26  C   UNL     1     -37.220 156.588   4.217  1.00  0.00    +0.040 A 
ATOM     27  C   UNL     1     -35.829 156.503   4.350  1.00  0.00    +0.014 A 
ATOM     28  C   UNL     1     -38.043 155.839   5.066  1.00  0.00    +0.014 A 
ATOM     29  C   UNL     1     -35.271 155.655   5.309  1.00  0.00    +0.006 A 
ATOM     30  C   UNL     1     -37.482 154.993   6.025  1.00  0.00    +0.006 A 
ATOM     31  C   UNL     1     -36.090 154.895   6.159  1.00  0.00    -0.034 A 
BRANCH  31  32
ATOM     32  C   UNL     1     -35.482 153.961   7.189  1.00  0.00    +0.120 C 
BRANCH  32  33
ATOM     33  N   UNL     1     -36.042 152.602   7.145  1.00  0.00    -0.297 NA
ATOM     34  C   UNL     1     -35.322 151.727   8.097  1.00  0.00    +0.100 C 
ATOM     35  C   UNL     1     -36.037 152.024   5.782  1.00  0.00    +0.100 C 
ATOM     36  C   UNL     1     -35.448 150.233   7.740  1.00  0.00    +0.099 C 
ATOM     37  C   UNL     1     -34.885 151.032   5.503  1.00  0.00    +0.099 C 
ATOM     38  N   UNL     1     -34.790 149.909   6.457  1.00  0.00    -0.304 NA
ATOM     39  C   UNL     1     -35.335 148.674   5.901  1.00  0.00    +0.105 C 
ENDBRANCH  32  33
ENDBRANCH  31  32
ENDBRANCH   2  26
TORSDOF 7
ENDMDL
MODEL 2
REMARK VINA RESULT:   -11.586      2.760     12.811
REMARK INTER + INTRA:         -16.680
REMARK INTER:                 -15.855
REMARK INTRA:                  -0.825
REMARK UNBOUND:                -0.353
REMARK SMILES Cc1ccc(NC(=O)c2ccc(CN3CCN(C)CC3)cc2)cc1Nc1nccc(-c2cccnc2)n1
REMARK SMILES IDX 6 1 7 2 8 3 5 5 2 6 3 7 24 8 4 9 23 10 1 11 25 12 26 14
REMARK SMILES IDX 27 15 37 16 28 17 30 18 29 19 31 20 32 21 36 22 33 23 35 24
REMARK SMILES IDX 34 25 9 26 10 27 22 28 11 29 21 30 12 31 13 32 14 33 15 34
REMARK SMILES IDX 20 35 16 36 19 37 17 38 18 39
REMARK H PARENT 6 4 25 13
ROOT
ATOM      1  N   UNL     1     -39.798 160.596  -1.618  1.00  0.00    -0.322 N 
ATOM      2  C   UNL     1     -39.309 161.879  -1.779  1.00  0.00    +0.255 C 
ATOM      3  O   UNL     1     -39.137 162.718  -0.902  1.00  0.00    -0.269 OA
ATOM      4  H   UNL     1     -39.752 159.981  -2.421  1.00  0.00    +0.170 HD
ENDROOT
BRANCH   1   5
ATOM      5  C   UNL     1     -40.280 160.001  -0.432  1.00  0.00    +0.043 A 
ATOM      6  C   UNL     1     -41.083 158.700   1.932  1.00  0.00    -0.027 A 
ATOM      7  C   UNL     1     -41.921 159.631   1.294  1.00  0.00    +0.008 A 
ATOM      8  C   UNL     1     -39.812 158.410   1.387  1.00  0.00    +0.046 A 
ATOM      9  C   UNL     1     -41.524 160.274   0.122  1.00  0.00    +0.026 A 
ATOM     10  C   UNL     1     -39.442 159.070   0.203  1.00  0.00    +0.052 A 
ATOM     11  C   UNL     1     -41.579 158.040   3.191  1.00  0.00    +0.046 C 
BRANCH   8  12
ATOM     12  N   UNL     1     -38.978 157.473   2.016  1.00  0.00    -0.324 N 
ATOM     13  H   UNL     1     -38.923 156.556   1.600  1.00  0.00    +0.170 HD
BRANCH  12  14
ATOM     14  C   UNL     1     -38.191 157.475   3.164  1.00  0.00    +0.227 A 
ATOM     15  N   UNL     1     -37.665 158.595   3.673  1.00  0.00    -0.221 NA
ATOM     16  N   UNL     1     -37.998 156.263   3.711  1.00  0.00    -0.213 NA
ATOM     17  C   UNL     1     -36.917 158.477   4.781  1.00  0.00    +0.117 A 
ATOM     18  C   UNL     1     -37.234 156.165   4.823  1.00  0.00    +0.077 A 
ATOM     19  C   UNL     1     -36.665 157.280   5.403  1.00  0.00    +0.049 A 
BRANCH  18  20
ATOM     20  C   UNL     1     -37.064 154.804   5.360  1.00  0.00    +0.019 A 
ATOM     21  C   UNL     1     -36.294 154.517   6.498  1.00  0.00    +0.013 A 
ATOM     22  C   UNL     1     -37.667 153.703   4.747  1.00  0.00    +0.121 A 
ATOM     23  C   UNL     1     -36.172 153.206   6.963  1.00  0.00    +0.021 A 
ATOM     24  N   UNL     1     -37.573 152.417   5.176  1.00  0.00    -0.264 NA
ATOM     25  C   UNL     1     -36.826 152.201   6.276  1.00  0.00    +0.111 A 
ENDBRANCH  18  20
ENDBRANCH  12  14
ENDBRANCH   8  12
ENDBRANCH   1   5
BRANCH   2  26
ATOM     26  C   UNL     1     -38.918 162.229  -3.175  1.00  0.00    +0.040 A 
ATOM     27  C   UNL     1     -38.649 161.245  -4.134  1.00  0.00    +0.014 A 
ATOM     28  C   UNL     1     -38.849 163.580  -3.530  1.00  0.00    +0.014 A 
ATOM     29  C   UNL     1     -38.288 161.618  -5.431  1.00  0.00    +0.006 A 
ATOM     30  C   UNL     1     -38.489 163.950  -4.828  1.00  0.00    +0.006 A 
ATOM     31  C   UNL     1     -38.209 162.972  -5.794  1.00  0.00    -0.034 A 
BRANCH  31  32
ATOM     32  C   UNL     1     -37.801 163.375  -7.198  1.00  0.00    +0.120 C 
BRANCH  32  33
ATOM     33  N   UNL     1     -38.001 162.309  -8.191  1.00  0.00    -0.297 NA
ATOM     34  C   UNL     1     -36.743 161.557  -8.387  1.00  0.00    +0.100 C 
ATOM     35  C   UNL     1     -38.524 162.817  -9.480  1.00  0.00    +0.100 C 
ATOM     36  C   UNL     1     -36.695 160.824  -9.742  1.00  0.00    +0.099 C 
ATOM     37  C   UNL     1     -37.461 162.981 -10.591  1.00  0.00    +0.099 C 
ATOM     38  N   UNL     1     -36.678 161.763 -10.883  1.00  0.00    -0.304 NA
ATOM     39  C   UNL     1     -37.139 161.099 -12.098  1.00  0.00    +0.105 C 
ENDBRANCH  32  33
ENDBRANCH  31  32
ENDBRANCH   2  26
TORSDOF 7
ENDMDL
MODEL 3
REMARK VINA RESULT:   -11.335      1.161      1.665
REMARK INTER + INTRA:         -16.326
REMARK INTER:                 -15.650
REMARK INTRA:                  -0.676
REMARK UNBOUND:                -0.353
REMARK SMILES Cc1ccc(NC(=O)c2ccc(CN3CCN(C)CC3)cc2)cc1Nc1nccc(-c2cccnc2)n1
REMARK SMILES IDX 6 1 7 2 8 3 5 5 2 6 3 7 24 8 4 9 23 10 1 11 25 12 26 14
REMARK SMILES IDX 27 15 37 16 28 17 30 18 29 19 31 20 32 21 36 22 33 23 35 24
REMARK SMILES IDX 34 25 9 26 10 27 22 28 11 29 21 30 12 31 13 32 14 33 15 34
REMARK SMILES IDX 20 35 16 36 19 37 17 38 18 39
REMARK H PARENT 6 4 25 13
ROOT
ATOM      1  N   UNL     1     -38.860 157.377   2.866  1.00  0.00    -0.322 N 
ATOM      2  C   UNL     1     -37.871 157.784   3.742  1.00  0.00    +0.255 C 
ATOM      3  O   UNL     1     -37.628 158.931   4.099  1.00  0.00    -0.269 OA
ATOM      4  H   UNL     1     -39.018 156.381   2.780  1.00  0.00    +0.170 HD
ENDROOT
BRANCH   1   5
ATOM      5  C   UNL     1     -39.748 158.192   2.132  1.00  0.00    +0.043 A 
ATOM      6  C   UNL     1     -41.371 159.857   0.544  1.00  0.00    -0.027 A 
ATOM      7  C   UNL     1     -41.842 159.326   1.757  1.00  0.00    +0.008 A 
ATOM      8  C   UNL     1     -40.062 159.553   0.104  1.00  0.00    +0.046 A 
ATOM      9  C   UNL     1     -41.037 158.502   2.543  1.00  0.00    +0.026 A 
ATOM     10  C   UNL     1     -39.274 158.725   0.922  1.00  0.00    +0.052 A 
ATOM     11  C   UNL     1     -42.292 160.744  -0.252  1.00  0.00    +0.046 C 
BRANCH   8  12
ATOM     12  N   UNL     1     -39.586 160.092  -1.100  1.00  0.00    -0.324 N 
ATOM     13  H   UNL     1     -39.376 159.443  -1.842  1.00  0.00    +0.170 HD
BRANCH  12  14
ATOM     14  C   UNL     1     -39.271 161.373  -1.544  1.00  0.00    +0.227 A 
ATOM     15  N   UNL     1     -39.203 162.424  -0.718  1.00  0.00    -0.221 NA
ATOM     16  N   UNL     1     -39.050 161.467  -2.867  1.00  0.00    -0.213 NA
ATOM     17  C   UNL     1     -38.896 163.614  -1.259  1.00  0.00    +0.117 A 
ATOM     18  C   UNL     1     -38.751 162.677  -3.392  1.00  0.00    +0.077 A 
ATOM     19  C   UNL     1     -38.660 163.801  -2.598  1.00  0.00    +0.049 A 
BRANCH  18  20
ATOM     20  C   UNL     1     -38.528 162.700  -4.848  1.00  0.00    +0.019 A 
ATOM     21  C   UNL     1     -38.343 161.541  -5.616  1.00  0.00    +0.013 A 
ATOM     22  C   UNL     1     -38.481 163.904  -5.555  1.00  0.00    +0.121 A 
ATOM     23  C   UNL     1     -38.139 161.624  -6.995  1.00  0.00    +0.021 A 
ATOM     24  N   UNL     1     -38.290 164.021  -6.895  1.00  0.00    -0.264 NA
ATOM     25  C   UNL     1     -38.123 162.875  -7.583  1.00  0.00    +0.111 A 
ENDBRANCH  18  20
ENDBRANCH  12  14
ENDBRANCH   8  12
ENDBRANCH   1   5
BRANCH   2  26
ATOM     26  C   UNL     1     -37.062 156.678   4.330  1.00  0.00    +0.040 A 
ATOM     27  C   UNL     1     -35.665 156.747   4.409  1.00  0.00    +0.014 A 
ATOM     28  C   UNL     1     -37.729 155.558   4.836  1.00  0.00    +0.014 A 
ATOM     29  C   UNL     1     -34.946 155.689   4.969  1.00  0.00    +0.006 A 
ATOM     30  C   UNL     1     -37.007 154.501   5.397  1.00  0.00    +0.006 A 
ATOM     31  C   UNL     1     -35.608 154.558   5.473  1.00  0.00    -0.034 A 
BRANCH  31  32
ATOM     32  C   UNL     1     -34.825 153.402   6.065  1.00  0.00    +0.120 C 
BRANCH  32  33
ATOM     33  N   UNL     1     -35.677 152.294   6.523  1.00  0.00    -0.297 NA
ATOM     34  C   UNL     1     -35.030 151.591   7.652  1.00  0.00    +0.100 C 
ATOM     35  C   UNL     1     -36.024 151.351   5.436  1.00  0.00    +0.100 C 
ATOM     36  C   UNL     1     -35.547 150.149   7.826  1.00  0.00    +0.099 C 
ATOM     37  C   UNL     1     -35.187 150.051   5.413  1.00  0.00    +0.099 C 
ATOM     38  N   UNL     1     -35.195 149.288   6.678  1.00  0.00    -0.304 NA
ATOM     39  C   UNL     1     -36.088 148.135   6.611  1.00  0.00    +0.105 C 
ENDBRANCH  32  33
ENDBRANCH  31  32
ENDBRANCH   2  26
TORSDOF 7
ENDMDL
MODEL 4
REMARK VINA RESULT:   -11.179      2.314     13.193
REMARK INTER + INTRA:         -16.107
REMARK INTER:                 -15.587
REMARK INTRA:                  -0.520
REMARK UNBOUND:                -0.353
REMARK SMILES Cc1ccc(NC(=O)c2ccc(CN3CCN(C)CC3)cc2)cc1Nc1nccc(-c2cccnc2)n1
REMARK SMILES IDX 6 1 7 2 8 3 5 5 2 6 3 7 24 8 4 9 23 10 1 11 25 12 26 14
REMARK SMILES IDX 27 15 37 16 28 17 30 18 29 19 31 20 32 21 36 22 33 23 35 24
REMARK SMILES IDX 34 25 9 26 10 27 22 28 11 29 21 30 12 31 13 32 14 33 15 34
REMARK SMILES IDX 20 35 16 36 19 37 17 38 18 39
REMARK H PARENT 6 4 25 13
ROOT
ATOM      1  N   UNL     1     -39.907 161.002  -1.304  1.00  0.00    -0.322 N 
ATOM      2  C   UNL     1     -39.345 160.521  -2.472  1.00  0.00    +0.255 C 
ATOM      3  O   UNL     1     -39.203 159.346  -2.793  1.00  0.00    -0.269 OA
ATOM      4  H   UNL     1     -40.073 161.999  -1.249  1.00  0.00    +0.170 HD
ENDROOT
BRANCH   1   5
ATOM      5  C   UNL     1     -40.364 160.254  -0.198  1.00  0.00    +0.043 A 
ATOM      6  C   UNL     1     -41.107 158.660   2.002  1.00  0.00    -0.027 A 
ATOM      7  C   UNL     1     -42.007 159.576   1.431  1.00  0.00    +0.008 A 
ATOM      8  C   UNL     1     -39.803 158.533   1.471  1.00  0.00    +0.046 A 
ATOM      9  C   UNL     1     -41.639 160.365   0.341  1.00  0.00    +0.026 A 
ATOM     10  C   UNL     1     -39.464 159.337   0.370  1.00  0.00    +0.052 A 
ATOM     11  C   UNL     1     -41.574 157.838   3.174  1.00  0.00    +0.046 C 
BRANCH   8  12
ATOM     12  N   UNL     1     -38.907 157.611   2.032  1.00  0.00    -0.324 N 
ATOM     13  H   UNL     1     -38.774 156.742   1.539  1.00  0.00    +0.170 HD
BRANCH  12  14
ATOM     14  C   UNL     1     -38.138 157.571   3.191  1.00  0.00    +0.227 A 
ATOM     15  N   UNL     1     -37.592 158.668   3.729  1.00  0.00    -0.221 NA
ATOM     16  N   UNL     1     -37.983 156.344   3.718  1.00  0.00    -0.213 NA
ATOM     17  C   UNL     1     -36.863 158.510   4.846  1.00  0.00    +0.117 A 
ATOM     18  C   UNL     1     -37.238 156.206   4.838  1.00  0.00    +0.077 A 
ATOM     19  C   UNL     1     -36.651 157.295   5.448  1.00  0.00    +0.049 A 
BRANCH  18  20
ATOM     20  C   UNL     1     -37.110 154.831   5.351  1.00  0.00    +0.019 A 
ATOM     21  C   UNL     1     -36.422 154.512   6.532  1.00  0.00    +0.013 A 
ATOM     22  C   UNL     1     -37.674 153.749   4.671  1.00  0.00    +0.121 A 
ATOM     23  C   UNL     1     -36.337 153.189   6.971  1.00  0.00    +0.021 A 
ATOM     24  N   UNL     1     -37.614 152.452   5.073  1.00  0.00    -0.264 NA
ATOM     25  C   UNL     1     -36.945 152.204   6.215  1.00  0.00    +0.111 A 
ENDBRANCH  18  20
ENDBRANCH  12  14
ENDBRANCH   8  12
ENDBRANCH   1   5
BRANCH   2  26
ATOM     26  C   UNL     1     -38.916 161.572  -3.439  1.00  0.00    +0.040 A 
ATOM     27  C   UNL     1     -39.026 162.936  -3.142  1.00  0.00    +0.014 A 
ATOM     28  C   UNL     1     -38.365 161.171  -4.661  1.00  0.00    +0.014 A 
ATOM     29  C   UNL     1     -38.610 163.887  -4.077  1.00  0.00    +0.006 A 
ATOM     30  C   UNL     1     -37.949 162.125  -5.593  1.00  0.00    +0.006 A 
ATOM     31  C   UNL     1     -38.063 163.493  -5.308  1.00  0.00    -0.034 A 
BRANCH  31  32
ATOM     32  C   UNL     1     -37.627 164.527  -6.328  1.00  0.00    +0.120 C 
BRANCH  32  33
ATOM     33  N   UNL     1     -38.202 164.307  -7.664  1.00  0.00    -0.297 NA
ATOM     34  C   UNL     1     -37.337 163.395  -8.443  1.00  0.00    +0.100 C 
ATOM     35  C   UNL     1     -38.444 165.569  -8.399  1.00  0.00    +0.100 C 
ATOM     36  C   UNL     1     -37.542 163.539  -9.965  1.00  0.00    +0.099 C 
ATOM     37  C   UNL     1     -37.371 165.920  -9.455  1.00  0.00    +0.099 C 
ATOM     38  N   UNL     1     -37.123 164.867 -10.460  1.00  0.00    -0.304 NA
ATOM     39  C   UNL     1     -37.773 165.165 -11.733  1.00  0.00    +0.105 C 
ENDBRANCH  32  33
ENDBRANCH  31  32
ENDBRANCH   2  26
TORSDOF 7
ENDMDL
MODEL 5
REMARK VINA RESULT:   -10.897      6.600     12.591
REMARK INTER + INTRA:         -15.709
REMARK INTER:                 -15.195
REMARK INTRA:                  -0.514
REMARK UNBOUND:                -0.353
REMARK SMILES Cc1ccc(NC(=O)c2ccc(CN3CCN(C)CC3)cc2)cc1Nc1nccc(-c2cccnc2)n1
REMARK SMILES IDX 6 1 7 2 8 3 5 5 2 6 3 7 24 8 4 9 23 10 1 11 25 12 26 14
REMARK SMILES IDX 27 15 37 16 28 17 30 18 29 19 31 20 32 21 36 22 33 23 35 24
REMARK SMILES IDX 34 25 9 26 10 27 22 28 11 29 21 30 12 31 13 32 14 33 15 34
REMARK SMILES IDX 20 35 16 36 19 37 17 38 18 39
REMARK H PARENT 6 4 25 13
ROOT
ATOM      1  N   UNL     1     -37.009 161.070  -7.725  1.00  0.00    -0.322 N 
ATOM      2  C   UNL     1     -37.214 160.938  -9.086  1.00  0.00    +0.255 C 
ATOM      3  O   UNL     1     -37.804 161.720  -9.823  1.00  0.00    -0.269 OA
ATOM      4  H   UNL     1     -36.386 160.405  -7.286  1.00  0.00    +0.170 HD
ENDROOT
BRANCH   1   5
ATOM      5  C   UNL     1     -37.500 162.086  -6.877  1.00  0.00    +0.043 A 
ATOM      6  C   UNL     1     -38.539 163.971  -5.061  1.00  0.00    -0.027 A 
ATOM      7  C   UNL     1     -38.036 164.368  -6.312  1.00  0.00    +0.008 A 
ATOM      8  C   UNL     1     -38.524 162.605  -4.699  1.00  0.00    +0.046 A 
ATOM      9  C   UNL     1     -37.522 163.434  -7.211  1.00  0.00    +0.026 A 
ATOM     10  C   UNL     1     -38.005 161.688  -5.628  1.00  0.00    +0.052 A 
ATOM     11  C   UNL     1     -39.084 165.033  -4.142  1.00  0.00    +0.046 C 
BRANCH   8  12
ATOM     12  N   UNL     1     -39.037 162.206  -3.455  1.00  0.00    -0.324 N 
ATOM     13  H   UNL     1     -39.558 162.893  -2.932  1.00  0.00    +0.170 HD
BRANCH  12  14
ATOM     14  C   UNL     1     -38.970 161.043  -2.695  1.00  0.00    +0.227 A 
ATOM     15  N   UNL     1     -38.080 160.074  -2.939  1.00  0.00    -0.221 NA
ATOM     16  N   UNL     1     -39.876 160.970  -1.704  1.00  0.00    -0.213 NA
ATOM     17  C   UNL     1     -38.111 158.992  -2.144  1.00  0.00    +0.117 A 
ATOM     18  C   UNL     1     -39.896 159.867  -0.921  1.00  0.00    +0.077 A 
ATOM     19  C   UNL     1     -39.004 158.834  -1.114  1.00  0.00    +0.049 A 
BRANCH  18  20
ATOM     20  C   UNL     1     -40.920 159.859   0.138  1.00  0.00    +0.019 A 
ATOM     21  C   UNL     1     -40.834 159.056   1.286  1.00  0.00    +0.013 A 
ATOM     22  C   UNL     1     -42.060 160.662   0.051  1.00  0.00    +0.121 A 
ATOM     23  C   UNL     1     -41.834 159.092   2.259  1.00  0.00    +0.021 A 
ATOM     24  N   UNL     1     -43.048 160.726   0.981  1.00  0.00    -0.264 NA
ATOM     25  C   UNL     1     -42.911 159.937   2.063  1.00  0.00    +0.111 A 
ENDBRANCH  18  20
ENDBRANCH  12  14
ENDBRANCH   8  12
ENDBRANCH   1   5
BRANCH   2  26
ATOM     26  C   UNL     1     -36.600 159.723  -9.695  1.00  0.00    +0.040 A 
ATOM     27  C   UNL     1     -36.649 159.485 -11.074  1.00  0.00    +0.014 A 
ATOM     28  C   UNL     1     -35.938 158.818  -8.859  1.00  0.00    +0.014 A 
ATOM     29  C   UNL     1     -36.060 158.334 -11.603  1.00  0.00    +0.006 A 
ATOM     30  C   UNL     1     -35.348 157.669  -9.391  1.00  0.00    +0.006 A 
ATOM     31  C   UNL     1     -35.399 157.418 -10.770  1.00  0.00    -0.034 A 
BRANCH  31  32
ATOM     32  C   UNL     1     -34.774 156.161 -11.344  1.00  0.00    +0.120 C 
BRANCH  32  33
ATOM     33  N   UNL     1     -33.499 155.799 -10.705  1.00  0.00    -0.297 NA
ATOM     34  C   UNL     1     -32.461 156.796 -11.046  1.00  0.00    +0.100 C 
ATOM     35  C   UNL     1     -33.056 154.429 -11.046  1.00  0.00    +0.100 C 
ATOM     36  C   UNL     1     -31.032 156.236 -10.898  1.00  0.00    +0.099 C 
ATOM     37  C   UNL     1     -31.966 154.354 -12.140  1.00  0.00    +0.099 C 
ATOM     38  N   UNL     1     -30.755 155.152 -11.862  1.00  0.00    -0.304 NA
ATOM     39  C   UNL     1     -29.650 154.321 -11.393  1.00  0.00    +0.105 C 
ENDBRANCH  32  33
ENDBRANCH  31  32
ENDBRANCH   2  26
TORSDOF 7
ENDMDL
MODEL 6
REMARK VINA RESULT:   -10.837      2.513     12.843
REMARK INTER + INTRA:         -15.624
REMARK INTER:                 -14.937
REMARK INTRA:                  -0.687
REMARK UNBOUND:                -0.353
REMARK SMILES Cc1ccc(NC(=O)c2ccc(CN3CCN(C)CC3)cc2)cc1Nc1nccc(-c2cccnc2)n1
REMARK SMILES IDX 6 1 7 2 8 3 5 5 2 6 3 7 24 8 4 9 23 10 1 11 25 12 26 14
REMARK SMILES IDX 27 15 37 16 28 17 30 18 29 19 31 20 32 21 36 22 33 23 35 24
REMARK SMILES IDX 34 25 9 26 10 27 22 28 11 29 21 30 12 31 13 32 14 33 15 34
REMARK SMILES IDX 20 35 16 36 19 37 17 38 18 39
REMARK H PARENT 6 4 25 13
ROOT
ATOM      1  N   UNL     1     -37.537 158.077   2.336  1.00  0.00    -0.322 N 
ATOM      2  C   UNL     1     -38.776 158.506   1.896  1.00  0.00    +0.255 C 
ATOM      3  O   UNL     1     -39.800 158.608   2.561  1.00  0.00    -0.269 OA
ATOM      4  H   UNL     1     -36.760 158.179   1.696  1.00  0.00    +0.170 HD
ENDROOT
BRANCH   1   5
ATOM      5  C   UNL     1     -37.201 157.590   3.618  1.00  0.00    +0.043 A 
ATOM      6  C   UNL     1     -36.649 156.465   6.139  1.00  0.00    -0.027 A 
ATOM      7  C   UNL     1     -36.165 157.738   5.790  1.00  0.00    +0.008 A 
ATOM      8  C   UNL     1     -37.422 155.728   5.213  1.00  0.00    +0.046 A 
ATOM      9  C   UNL     1     -36.440 158.295   4.541  1.00  0.00    +0.026 A 
ATOM     10  C   UNL     1     -37.687 156.319   3.966  1.00  0.00    +0.052 A 
ATOM     11  C   UNL     1     -36.318 155.927   7.506  1.00  0.00    +0.046 C 
BRANCH   8  12
ATOM     12  N   UNL     1     -37.915 154.463   5.565  1.00  0.00    -0.324 N 
ATOM     13  H   UNL     1     -38.852 154.422   5.936  1.00  0.00    +0.170 HD
BRANCH  12  14
ATOM     14  C   UNL     1     -37.392 153.173   5.570  1.00  0.00    +0.227 A 
ATOM     15  N   UNL     1     -36.075 152.932   5.565  1.00  0.00    -0.221 NA
ATOM     16  N   UNL     1     -38.314 152.196   5.573  1.00  0.00    -0.213 NA
ATOM     17  C   UNL     1     -35.684 151.648   5.565  1.00  0.00    +0.117 A 
ATOM     18  C   UNL     1     -37.898 150.909   5.564  1.00  0.00    +0.077 A 
ATOM     19  C   UNL     1     -36.556 150.589   5.563  1.00  0.00    +0.049 A 
BRANCH  18  20
ATOM     20  C   UNL     1     -38.967 149.895   5.561  1.00  0.00    +0.019 A 
ATOM     21  C   UNL     1     -39.095 148.915   4.566  1.00  0.00    +0.013 A 
ATOM     22  C   UNL     1     -39.936 149.861   6.568  1.00  0.00    +0.121 A 
ATOM     23  C   UNL     1     -40.127 147.977   4.617  1.00  0.00    +0.021 A 
ATOM     24  N   UNL     1     -40.949 148.960   6.651  1.00  0.00    -0.264 NA
ATOM     25  C   UNL     1     -41.020 148.039   5.671  1.00  0.00    +0.111 A 
ENDBRANCH  18  20
ENDBRANCH  12  14
ENDBRANCH   8  12
ENDBRANCH   1   5
BRANCH   2  26
ATOM     26  C   UNL     1     -38.822 158.920   0.464  1.00  0.00    +0.040 A 
ATOM     27  C   UNL     1     -38.574 158.014  -0.574  1.00  0.00    +0.014 A 
ATOM     28  C   UNL     1     -39.149 160.246   0.163  1.00  0.00    +0.014 A 
ATOM     29  C   UNL     1     -38.629 158.444  -1.902  1.00  0.00    +0.006 A 
ATOM     30  C   UNL     1     -39.205 160.673  -1.166  1.00  0.00    +0.006 A 
ATOM     31  C   UNL     1     -38.950 159.776  -2.212  1.00  0.00    -0.034 A 
BRANCH  31  32
ATOM     32  C   UNL     1     -38.993 160.245  -3.654  1.00  0.00    +0.120 C 
BRANCH  32  33
ATOM     33  N   UNL     1     -38.313 161.531  -3.869  1.00  0.00    -0.297 NA
ATOM     34  C   UNL     1     -39.290 162.639  -3.795  1.00  0.00    +0.100 C 
ATOM     35  C   UNL     1     -37.555 161.573  -5.140  1.00  0.00    +0.100 C 
ATOM     36  C   UNL     1     -38.804 163.907  -4.525  1.00  0.00    +0.099 C 
ATOM     37  C   UNL     1     -38.267 162.314  -6.295  1.00  0.00    +0.099 C 
ATOM     38  N   UNL     1     -38.678 163.697  -5.982  1.00  0.00    -0.304 NA
ATOM     39  C   UNL     1     -37.769 164.680  -6.563  1.00  0.00    +0.105 C 
ENDBRANCH  32  33
ENDBRANCH  31  32
ENDBRANCH   2  26
TORSDOF 7
ENDMDL
MODEL 7
REMARK VINA RESULT:   -10.395      1.764     13.155
REMARK INTER + INTRA:         -15.002
REMARK INTER:                 -14.158
REMARK INTRA:                  -0.844
REMARK UNBOUND:                -0.353
REMARK SMILES Cc1ccc(NC(=O)c2ccc(CN3CCN(C)CC3)cc2)cc1Nc1nccc(-c2cccnc2)n1
REMARK SMILES IDX 6 1 7 2 8 3 5 5 2 6 3 7 24 8 4 9 23 10 1 11 25 12 26 14
REMARK SMILES IDX 27 15 37 16 28 17 30 18 29 19 31 20 32 21 36 22 33 23 35 24
REMARK SMILES IDX 34 25 9 26 10 27 22 28 11 29 21 30 12 31 13 32 14 33 15 34
REMARK SMILES IDX 20 35 16 36 19 37 17 38 18 39
REMARK H PARENT 6 4 25 13
ROOT
ATOM      1  N   UNL     1     -37.490 158.140   2.532  1.00  0.00    -0.322 N 
ATOM      2  C   UNL     1     -38.771 158.261   2.027  1.00  0.00    +0.255 C 
ATOM      3  O   UNL     1     -39.822 158.050   2.622  1.00  0.00    -0.269 OA
ATOM      4  H   UNL     1     -36.732 158.481   1.954  1.00  0.00    +0.170 HD
ENDROOT
BRANCH   1   5
ATOM      5  C   UNL     1     -37.110 157.673   3.809  1.00  0.00    +0.043 A 
ATOM      6  C   UNL     1     -36.340 156.562   6.279  1.00  0.00    -0.027 A 
ATOM      7  C   UNL     1     -36.722 157.910   6.177  1.00  0.00    +0.008 A 
ATOM      8  C   UNL     1     -36.334 155.743   5.126  1.00  0.00    +0.046 A 
ATOM      9  C   UNL     1     -37.105 158.460   4.953  1.00  0.00    +0.026 A 
ATOM     10  C   UNL     1     -36.730 156.325   3.910  1.00  0.00    +0.052 A 
ATOM     11  C   UNL     1     -35.944 156.033   7.632  1.00  0.00    +0.046 C 
BRANCH   8  12
ATOM     12  N   UNL     1     -35.964 154.394   5.228  1.00  0.00    -0.324 N 
ATOM     13  H   UNL     1     -34.980 154.182   5.164  1.00  0.00    +0.170 HD
BRANCH  12  14
ATOM     14  C   UNL     1     -36.657 153.194   5.364  1.00  0.00    +0.227 A 
ATOM     15  N   UNL     1     -37.816 152.959   4.739  1.00  0.00    -0.221 NA
ATOM     16  N   UNL     1     -36.070 152.299   6.177  1.00  0.00    -0.213 NA
ATOM     17  C   UNL     1     -38.399 151.768   4.948  1.00  0.00    +0.117 A 
ATOM     18  C   UNL     1     -36.679 151.109   6.381  1.00  0.00    +0.077 A 
ATOM     19  C   UNL     1     -37.873 150.799   5.764  1.00  0.00    +0.049 A 
BRANCH  18  20
ATOM     20  C   UNL     1     -35.978 150.184   7.289  1.00  0.00    +0.019 A 
ATOM     21  C   UNL     1     -35.224 150.613   8.392  1.00  0.00    +0.013 A 
ATOM     22  C   UNL     1     -36.023 148.802   7.091  1.00  0.00    +0.121 A 
ATOM     23  C   UNL     1     -34.584 149.690   9.220  1.00  0.00    +0.021 A 
ATOM     24  N   UNL     1     -35.418 147.876   7.880  1.00  0.00    -0.264 NA
ATOM     25  C   UNL     1     -34.711 148.344   8.927  1.00  0.00    +0.111 A 
ENDBRANCH  18  20
ENDBRANCH  12  14
ENDBRANCH   8  12
ENDBRANCH   1   5
BRANCH   2  26
ATOM     26  C   UNL     1     -38.845 158.742   0.617  1.00  0.00    +0.040 A 
ATOM     27  C   UNL     1     -38.288 158.014  -0.441  1.00  0.00    +0.014 A 
ATOM     28  C   UNL     1     -39.514 159.943   0.355  1.00  0.00    +0.014 A 
ATOM     29  C   UNL     1     -38.381 158.501  -1.746  1.00  0.00    +0.006 A 
ATOM     30  C   UNL     1     -39.606 160.427  -0.952  1.00  0.00    +0.006 A 
ATOM     31  C   UNL     1     -39.045 159.709  -2.017  1.00  0.00    -0.034 A 
BRANCH  31  32
ATOM     32  C   UNL     1     -39.131 160.244  -3.433  1.00  0.00    +0.120 C 
BRANCH  32  33
ATOM     33  N   UNL     1     -38.340 161.467  -3.643  1.00  0.00    -0.297 NA
ATOM     34  C   UNL     1     -39.163 162.659  -3.346  1.00  0.00    +0.100 C 
ATOM     35  C   UNL     1     -37.757 161.546  -5.001  1.00  0.00    +0.100 C 
ATOM     36  C   UNL     1     -38.634 163.931  -4.039  1.00  0.00    +0.099 C 
ATOM     37  C   UNL     1     -38.524 162.460  -5.984  1.00  0.00    +0.099 C 
ATOM     38  N   UNL     1     -38.727 163.844  -5.511  1.00  0.00    -0.304 NA
ATOM     39  C   UNL     1     -37.795 164.776  -6.138  1.00  0.00    +0.105 C 
ENDBRANCH  32  33
ENDBRANCH  31  32
ENDBRANCH   2  26
TORSDOF 7
ENDMDL
MODEL 8
REMARK VINA RESULT:   -10.387      4.078      7.746
REMARK INTER + INTRA:         -14.991
REMARK INTER:                 -14.345
REMARK INTRA:                  -0.646
REMARK UNBOUND:                -0.353
REMARK SMILES Cc1ccc(NC(=O)c2ccc(CN3CCN(C)CC3)cc2)cc1Nc1nccc(-c2cccnc2)n1
REMARK SMILES IDX 6 1 7 2 8 3 5 5 2 6 3 7 24 8 4 9 23 10 1 11 25 12 26 14
REMARK SMILES IDX 27 15 37 16 28 17 30 18 29 19 31 20 32 21 36 22 33 23 35 24
REMARK SMILES IDX 34 25 9 26 10 27 22 28 11 29 21 30 12 31 13 32 14 33 15 34
REMARK SMILES IDX 20 35 16 36 19 37 17 38 18 39
REMARK H PARENT 6 4 25 13
ROOT
ATOM      1  N   UNL     1     -38.549 161.912  -2.753  1.00  0.00    -0.322 N 
ATOM      2  C   UNL     1     -38.948 160.589  -2.779  1.00  0.00    +0.255 C 
ATOM      3  O   UNL     1     -39.267 159.934  -3.765  1.00  0.00    -0.269 OA
ATOM      4  H   UNL     1     -38.189 162.268  -1.877  1.00  0.00    +0.170 HD
ENDROOT
BRANCH   1   5
ATOM      5  C   UNL     1     -38.500 162.817  -3.835  1.00  0.00    +0.043 A 
ATOM      6  C   UNL     1     -38.277 164.500  -6.082  1.00  0.00    -0.027 A 
ATOM      7  C   UNL     1     -38.997 164.900  -4.943  1.00  0.00    +0.008 A 
ATOM      8  C   UNL     1     -37.655 163.231  -6.110  1.00  0.00    +0.046 A 
ATOM      9  C   UNL     1     -39.106 164.067  -3.830  1.00  0.00    +0.026 A 
ATOM     10  C   UNL     1     -37.778 162.417  -4.972  1.00  0.00    +0.052 A 
ATOM     11  C   UNL     1     -38.196 165.453  -7.246  1.00  0.00    +0.046 C 
BRANCH   8  12
ATOM     12  N   UNL     1     -36.926 162.835  -7.242  1.00  0.00    -0.324 N 
ATOM     13  H   UNL     1     -35.923 162.929  -7.198  1.00  0.00    +0.170 HD
BRANCH  12  14
ATOM     14  C   UNL     1     -37.259 162.352  -8.504  1.00  0.00    +0.227 A 
ATOM     15  N   UNL     1     -38.033 163.038  -9.354  1.00  0.00    -0.221 NA
ATOM     16  N   UNL     1     -36.749 161.144  -8.793  1.00  0.00    -0.213 NA
ATOM     17  C   UNL     1     -38.295 162.472 -10.543  1.00  0.00    +0.117 A 
ATOM     18  C   UNL     1     -37.032 160.588  -9.993  1.00  0.00    +0.077 A 
ATOM     19  C   UNL     1     -37.819 161.241 -10.919  1.00  0.00    +0.049 A 
BRANCH  18  20
ATOM     20  C   UNL     1     -36.441 159.260 -10.234  1.00  0.00    +0.019 A 
ATOM     21  C   UNL     1     -36.320 158.692 -11.512  1.00  0.00    +0.013 A 
ATOM     22  C   UNL     1     -35.967 158.476  -9.180  1.00  0.00    +0.121 A 
ATOM     23  C   UNL     1     -35.748 157.430 -11.679  1.00  0.00    +0.021 A 
ATOM     24  N   UNL     1     -35.400 157.247  -9.308  1.00  0.00    -0.264 NA
ATOM     25  C   UNL     1     -35.306 156.754 -10.557  1.00  0.00    +0.111 A 
ENDBRANCH  18  20
ENDBRANCH  12  14
ENDBRANCH   8  12
ENDBRANCH   1   5
BRANCH   2  26
ATOM     26  C   UNL     1     -38.934 159.905  -1.454  1.00  0.00    +0.040 A 
ATOM     27  C   UNL     1     -38.488 158.586  -1.309  1.00  0.00    +0.014 A 
ATOM     28  C   UNL     1     -39.356 160.621  -0.329  1.00  0.00    +0.014 A 
ATOM     29  C   UNL     1     -38.491 157.985  -0.049  1.00  0.00    +0.006 A 
ATOM     30  C   UNL     1     -39.357 160.018   0.931  1.00  0.00    +0.006 A 
ATOM     31  C   UNL     1     -38.920 158.694   1.085  1.00  0.00    -0.034 A 
BRANCH  31  32
ATOM     32  C   UNL     1     -38.938 158.034   2.450  1.00  0.00    +0.120 C 
BRANCH  32  33
ATOM     33  N   UNL     1     -37.641 157.455   2.835  1.00  0.00    -0.297 NA
ATOM     34  C   UNL     1     -37.851 156.206   3.599  1.00  0.00    +0.100 C 
ATOM     35  C   UNL     1     -36.791 158.404   3.587  1.00  0.00    +0.100 C 
ATOM     36  C   UNL     1     -36.642 155.843   4.483  1.00  0.00    +0.099 C 
ATOM     37  C   UNL     1     -36.785 158.195   5.119  1.00  0.00    +0.099 C 
ATOM     38  N   UNL     1     -36.419 156.833   5.557  1.00  0.00    -0.304 NA
ATOM     39  C   UNL     1     -35.041 156.767   6.034  1.00  0.00    +0.105 C 
ENDBRANCH  32  33
ENDBRANCH  31  32
ENDBRANCH   2  26
TORSDOF 7
ENDMDL
MODEL 9
REMARK VINA RESULT:   -10.223      3.967      6.537
REMARK INTER + INTRA:         -14.760
REMARK INTER:                 -13.979
REMARK INTRA:                  -0.781
REMARK UNBOUND:                -0.353
REMARK SMILES Cc1ccc(NC(=O)c2ccc(CN3CCN(C)CC3)cc2)cc1Nc1nccc(-c2cccnc2)n1
REMARK SMILES IDX 6 1 7 2 8 3 5 5 2 6 3 7 24 8 4 9 23 10 1 11 25 12 26 14
REMARK SMILES IDX 27 15 37 16 28 17 30 18 29 19 31 20 32 21 36 22 33 23 35 24
REMARK SMILES IDX 34 25 9 26 10 27 22 28 11 29 21 30 12 31 13 32 14 33 15 34
REMARK SMILES IDX 20 35 16 36 19 37 17 38 18 39
REMARK H PARENT 6 4 25 13
ROOT
ATOM      1  N   UNL     1     -37.671 153.311   4.375  1.00  0.00    -0.322 N 
ATOM      2  C   UNL     1     -38.083 152.275   5.194  1.00  0.00    +0.255 C 
ATOM      3  O   UNL     1     -38.385 152.348   6.379  1.00  0.00    -0.269 OA
ATOM      4  H   UNL     1     -37.588 153.112   3.387  1.00  0.00    +0.170 HD
ENDROOT
BRANCH   1   5
ATOM      5  C   UNL     1     -37.433 154.653   4.741  1.00  0.00    +0.043 A 
ATOM      6  C   UNL     1     -37.001 157.382   5.285  1.00  0.00    -0.027 A 
ATOM      7  C   UNL     1     -36.710 156.395   6.243  1.00  0.00    +0.008 A 
ATOM      8  C   UNL     1     -37.524 157.008   4.026  1.00  0.00    +0.046 A 
ATOM      9  C   UNL     1     -36.922 155.044   5.972  1.00  0.00    +0.026 A 
ATOM     10  C   UNL     1     -37.722 155.638   3.782  1.00  0.00    +0.052 A 
ATOM     11  C   UNL     1     -36.742 158.821   5.643  1.00  0.00    +0.046 C 
BRANCH   8  12
ATOM     12  N   UNL     1     -37.804 157.990   3.066  1.00  0.00    -0.324 N 
ATOM     13  H   UNL     1     -37.034 158.565   2.758  1.00  0.00    +0.170 HD
BRANCH  12  14
ATOM     14  C   UNL     1     -38.955 158.429   2.418  1.00  0.00    +0.227 A 
ATOM     15  N   UNL     1     -40.175 158.303   2.955  1.00  0.00    -0.221 NA
ATOM     16  N   UNL     1     -38.742 158.979   1.211  1.00  0.00    -0.213 NA
ATOM     17  C   UNL     1     -41.215 158.756   2.237  1.00  0.00    +0.117 A 
ATOM     18  C   UNL     1     -39.805 159.421   0.501  1.00  0.00    +0.077 A 
ATOM     19  C   UNL     1     -41.089 159.327   0.996  1.00  0.00    +0.049 A 
BRANCH  18  20
ATOM     20  C   UNL     1     -39.492 160.007  -0.815  1.00  0.00    +0.019 A 
ATOM     21  C   UNL     1     -39.024 159.251  -1.901  1.00  0.00    +0.013 A 
ATOM     22  C   UNL     1     -39.640 161.375  -1.053  1.00  0.00    +0.121 A 
ATOM     23  C   UNL     1     -38.746 159.860  -3.126  1.00  0.00    +0.021 A 
ATOM     24  N   UNL     1     -39.384 161.999  -2.233  1.00  0.00    -0.264 NA
ATOM     25  C   UNL     1     -38.942 161.224  -3.242  1.00  0.00    +0.111 A 
ENDBRANCH  18  20
ENDBRANCH  12  14
ENDBRANCH   8  12
ENDBRANCH   1   5
BRANCH   2  26
ATOM     26  C   UNL     1     -38.200 150.952   4.517  1.00  0.00    +0.040 A 
ATOM     27  C   UNL     1     -37.323 149.898   4.802  1.00  0.00    +0.014 A 
ATOM     28  C   UNL     1     -39.234 150.763   3.595  1.00  0.00    +0.014 A 
ATOM     29  C   UNL     1     -37.470 148.674   4.145  1.00  0.00    +0.006 A 
ATOM     30  C   UNL     1     -39.380 149.537   2.941  1.00  0.00    +0.006 A 
ATOM     31  C   UNL     1     -38.502 148.478   3.213  1.00  0.00    -0.034 A 
BRANCH  31  32
ATOM     32  C   UNL     1     -38.650 147.153   2.489  1.00  0.00    +0.120 C 
BRANCH  32  33
ATOM     33  N   UNL     1     -38.478 147.263   1.032  1.00  0.00    -0.297 NA
ATOM     34  C   UNL     1     -38.749 145.958   0.391  1.00  0.00    +0.100 C 
ATOM     35  C   UNL     1     -37.144 147.778   0.649  1.00  0.00    +0.100 C 
ATOM     36  C   UNL     1     -38.086 145.829  -0.995  1.00  0.00    +0.099 C 
ATOM     37  C   UNL     1     -36.138 146.696   0.195  1.00  0.00    +0.099 C 
ATOM     38  N   UNL     1     -36.611 145.836  -0.909  1.00  0.00    -0.304 NA
ATOM     39  C   UNL     1     -36.026 146.223  -2.189  1.00  0.00    +0.105 C 
ENDBRANCH  32  33
ENDBRANCH  31  32
ENDBRANCH   2  26
TORSDOF 7
ENDMDL
