MODEL 1
REMARK VINA RESULT:    -8.613      0.000      0.000
REMARK INTER + INTRA:         -15.284
REMARK INTER:                 -13.144
REMARK INTRA:                  -2.140
REMARK UNBOUND:                -2.140
REMARK SMILES COC(=O)c1ccc2c(c1)NC(=O)/C2=C(\Nc1ccc(N(C)C(=O)CN2CCN(C)CC2)cc1)c1ccccc1
REMARK SMILES IDX 17 1 18 2 19 3 20 4 33 5 34 6 16 7 15 9 5 10 6 11 10 12 7 13
REMARK SMILES IDX 9 14 8 15 11 16 14 17 12 18 13 19 3 21 4 22 2 23 1 24 35 25
REMARK SMILES IDX 36 26 40 27 37 28 39 29 38 30 21 31 22 32 23 33 24 34 25 35
REMARK SMILES IDX 26 36 27 37 32 38 28 39 31 40 29 41 30 42
REMARK H PARENT 16 8 11 20
ROOT
ATOM      1  C   UNL     1     -37.161 152.764   6.304  1.00  0.00    +0.039 A 
ATOM      2  C   UNL     1     -37.999 153.674   6.943  1.00  0.00    +0.028 A 
ATOM      3  C   UNL     1     -37.905 155.048   6.681  1.00  0.00    +0.028 A 
ATOM      4  C   UNL     1     -36.968 155.562   5.768  1.00  0.00    +0.043 A 
ATOM      5  C   UNL     1     -36.138 154.636   5.126  1.00  0.00    +0.028 A 
ATOM      6  C   UNL     1     -36.233 153.260   5.387  1.00  0.00    +0.028 A 
ENDROOT
BRANCH   1   7
ATOM      7  N   UNL     1     -37.266 151.370   6.510  1.00  0.00    -0.354 N 
ATOM      8  H   UNL     1     -36.605 151.064   7.235  1.00  0.00    +0.167 HD
BRANCH   7   9
ATOM      9  C   UNL     1     -37.376 150.405   5.497  1.00  0.00    +0.059 C 
ATOM     10  C   UNL     1     -35.350 146.338   2.595  1.00  0.00    +0.062 A 
ATOM     11  C   UNL     1     -36.668 146.825   2.463  1.00  0.00    +0.016 A 
ATOM     12  C   UNL     1     -34.480 146.920   3.525  1.00  0.00    +0.042 A 
ATOM     13  C   UNL     1     -37.131 147.890   3.253  1.00  0.00    +0.012 A 
ATOM     14  C   UNL     1     -34.964 147.966   4.288  1.00  0.00    +0.050 A 
ATOM     15  C   UNL     1     -36.269 148.462   4.171  1.00  0.00    +0.013 A 
ATOM     16  N   UNL     1     -34.253 148.665   5.256  1.00  0.00    -0.321 N 
ATOM     17  C   UNL     1     -36.376 149.560   5.153  1.00  0.00    +0.073 C 
ATOM     18  C   UNL     1     -35.027 149.657   5.827  1.00  0.00    +0.258 C 
ATOM     19  O   UNL     1     -34.685 150.454   6.683  1.00  0.00    -0.269 OA
ATOM     20  H   UNL     1     -33.292 148.504   5.518  1.00  0.00    +0.170 HD
BRANCH  10  21
ATOM     21  C   UNL     1     -34.832 145.211   1.772  1.00  0.00    +0.337 C 
ATOM     22  O   UNL     1     -34.289 144.227   2.249  1.00  0.00    -0.246 OA
BRANCH  21  23
ATOM     23  O   UNL     1     -35.049 145.440   0.453  1.00  0.00    -0.465 OA
ATOM     24  C   UNL     1     -33.853 145.635  -0.305  1.00  0.00    +0.282 C 
ENDBRANCH  21  23
ENDBRANCH  10  21
BRANCH   9  25
ATOM     25  C   UNL     1     -38.677 150.290   4.805  1.00  0.00    -0.001 A 
ATOM     26  C   UNL     1     -38.900 150.955   3.591  1.00  0.00    +0.010 A 
ATOM     27  C   UNL     1     -39.702 149.508   5.358  1.00  0.00    +0.010 A 
ATOM     28  C   UNL     1     -40.128 150.836   2.939  1.00  0.00    +0.001 A 
ATOM     29  C   UNL     1     -40.928 149.390   4.702  1.00  0.00    +0.001 A 
ATOM     30  C   UNL     1     -41.139 150.052   3.493  1.00  0.00    +0.000 A 
ENDBRANCH   9  25
ENDBRANCH   7   9
ENDBRANCH   1   7
BRANCH   4  31
ATOM     31  N   UNL     1     -36.898 156.981   5.500  1.00  0.00    -0.314 N 
ATOM     32  C   UNL     1     -36.672 157.860   6.651  1.00  0.00    +0.153 C 
BRANCH  31  33
ATOM     33  C   UNL     1     -36.941 157.495   4.180  1.00  0.00    +0.240 C 
ATOM     34  O   UNL     1     -35.969 157.986   3.601  1.00  0.00    -0.273 OA
BRANCH  33  35
ATOM     35  C   UNL     1     -38.320 157.421   3.476  1.00  0.00    +0.185 C 
BRANCH  35  36
ATOM     36  N   UNL     1     -38.562 158.420   2.418  1.00  0.00    -0.292 NA
ATOM     37  C   UNL     1     -39.861 159.108   2.517  1.00  0.00    +0.100 C 
ATOM     38  C   UNL     1     -38.294 157.921   1.062  1.00  0.00    +0.100 C 
ATOM     39  C   UNL     1     -40.708 159.100   1.219  1.00  0.00    +0.099 C 
ATOM     40  C   UNL     1     -38.585 159.019   0.013  1.00  0.00    +0.099 C 
ATOM     41  N   UNL     1     -39.988 159.486  -0.009  1.00  0.00    -0.304 NA
ATOM     42  C   UNL     1     -40.052 160.925  -0.245  1.00  0.00    +0.105 C 
ENDBRANCH  35  36
ENDBRANCH  33  35
ENDBRANCH  31  33
ENDBRANCH   4  31
TORSDOF 9
ENDMDL
MODEL 2
REMARK VINA RESULT:    -8.432      4.361      9.366
REMARK INTER + INTRA:         -15.008
REMARK INTER:                 -12.866
REMARK INTRA:                  -2.142
REMARK UNBOUND:                -2.140
REMARK SMILES COC(=O)c1ccc2c(c1)NC(=O)/C2=C(\Nc1ccc(N(C)C(=O)CN2CCN(C)CC2)cc1)c1ccccc1
REMARK SMILES IDX 17 1 18 2 19 3 20 4 33 5 34 6 16 7 15 9 5 10 6 11 10 12 7 13
REMARK SMILES IDX 9 14 8 15 11 16 14 17 12 18 13 19 3 21 4 22 2 23 1 24 35 25
REMARK SMILES IDX 36 26 40 27 37 28 39 29 38 30 21 31 22 32 23 33 24 34 25 35
REMARK SMILES IDX 26 36 27 37 32 38 28 39 31 40 29 41 30 42
REMARK H PARENT 16 8 11 20
ROOT
ATOM      1  C   UNL     1     -35.659 147.240   3.840  1.00  0.00    +0.039 A 
ATOM      2  C   UNL     1     -35.168 148.085   2.848  1.00  0.00    +0.028 A 
ATOM      3  C   UNL     1     -34.357 147.591   1.817  1.00  0.00    +0.028 A 
ATOM      4  C   UNL     1     -34.009 146.231   1.739  1.00  0.00    +0.043 A 
ATOM      5  C   UNL     1     -34.517 145.391   2.736  1.00  0.00    +0.028 A 
ATOM      6  C   UNL     1     -35.330 145.885   3.769  1.00  0.00    +0.028 A 
ENDROOT
BRANCH   1   7
ATOM      7  N   UNL     1     -36.519 147.699   4.864  1.00  0.00    -0.354 N 
ATOM      8  H   UNL     1     -37.303 147.047   4.991  1.00  0.00    +0.167 HD
BRANCH   7   9
ATOM      9  C   UNL     1     -36.940 149.025   5.037  1.00  0.00    +0.059 C 
ATOM     10  C   UNL     1     -36.099 154.075   6.727  1.00  0.00    +0.062 A 
ATOM     11  C   UNL     1     -37.259 153.653   6.043  1.00  0.00    +0.016 A 
ATOM     12  C   UNL     1     -35.078 153.158   7.006  1.00  0.00    +0.042 A 
ATOM     13  C   UNL     1     -37.413 152.319   5.631  1.00  0.00    +0.012 A 
ATOM     14  C   UNL     1     -35.258 151.853   6.588  1.00  0.00    +0.050 A 
ATOM     15  C   UNL     1     -36.402 151.415   5.908  1.00  0.00    +0.013 A 
ATOM     16  N   UNL     1     -34.362 150.807   6.773  1.00  0.00    -0.321 N 
ATOM     17  C   UNL     1     -36.194 149.977   5.646  1.00  0.00    +0.073 C 
ATOM     18  C   UNL     1     -34.850 149.629   6.243  1.00  0.00    +0.258 C 
ATOM     19  O   UNL     1     -34.314 148.535   6.266  1.00  0.00    -0.269 OA
ATOM     20  H   UNL     1     -33.471 150.866   7.242  1.00  0.00    +0.170 HD
BRANCH  10  21
ATOM     21  C   UNL     1     -35.908 155.482   7.176  1.00  0.00    +0.337 C 
ATOM     22  O   UNL     1     -36.833 156.262   7.344  1.00  0.00    -0.246 OA
BRANCH  21  23
ATOM     23  O   UNL     1     -34.593 155.753   7.362  1.00  0.00    -0.465 OA
ATOM     24  C   UNL     1     -34.123 156.881   6.620  1.00  0.00    +0.282 C 
ENDBRANCH  21  23
ENDBRANCH  10  21
BRANCH   9  25
ATOM     25  C   UNL     1     -38.258 149.400   4.479  1.00  0.00    -0.001 A 
ATOM     26  C   UNL     1     -39.405 149.376   5.285  1.00  0.00    +0.010 A 
ATOM     27  C   UNL     1     -38.369 149.787   3.136  1.00  0.00    +0.010 A 
ATOM     28  C   UNL     1     -40.644 149.739   4.754  1.00  0.00    +0.001 A 
ATOM     29  C   UNL     1     -39.609 150.150   2.609  1.00  0.00    +0.001 A 
ATOM     30  C   UNL     1     -40.744 150.128   3.418  1.00  0.00    +0.000 A 
ENDBRANCH   9  25
ENDBRANCH   7   9
ENDBRANCH   1   7
BRANCH   4  31
ATOM     31  N   UNL     1     -33.186 145.739   0.657  1.00  0.00    -0.314 N 
ATOM     32  C   UNL     1     -32.067 144.866   1.024  1.00  0.00    +0.153 C 
BRANCH  31  33
ATOM     33  C   UNL     1     -33.501 145.999  -0.700  1.00  0.00    +0.240 C 
ATOM     34  O   UNL     1     -32.843 146.745  -1.429  1.00  0.00    -0.273 OA
BRANCH  33  35
ATOM     35  C   UNL     1     -34.768 145.288  -1.242  1.00  0.00    +0.185 C 
BRANCH  35  36
ATOM     36  N   UNL     1     -36.035 146.031  -1.110  1.00  0.00    -0.292 NA
ATOM     37  C   UNL     1     -37.159 145.229  -0.596  1.00  0.00    +0.100 C 
ATOM     38  C   UNL     1     -36.396 146.799  -2.309  1.00  0.00    +0.100 C 
ATOM     39  C   UNL     1     -38.451 145.289  -1.450  1.00  0.00    +0.099 C 
ATOM     40  C   UNL     1     -37.740 147.535  -2.097  1.00  0.00    +0.099 C 
ATOM     41  N   UNL     1     -38.890 146.643  -1.839  1.00  0.00    -0.304 NA
ATOM     42  C   UNL     1     -39.788 147.228  -0.847  1.00  0.00    +0.105 C 
ENDBRANCH  35  36
ENDBRANCH  33  35
ENDBRANCH  31  33
ENDBRANCH   4  31
TORSDOF 9
ENDMDL
MODEL 3
REMARK VINA RESULT:    -8.416      3.494      9.125
REMARK INTER + INTRA:         -14.984
REMARK INTER:                 -12.776
REMARK INTRA:                  -2.207
REMARK UNBOUND:                -2.140
REMARK SMILES COC(=O)c1ccc2c(c1)NC(=O)/C2=C(\Nc1ccc(N(C)C(=O)CN2CCN(C)CC2)cc1)c1ccccc1
REMARK SMILES IDX 17 1 18 2 19 3 20 4 33 5 34 6 16 7 15 9 5 10 6 11 10 12 7 13
REMARK SMILES IDX 9 14 8 15 11 16 14 17 12 18 13 19 3 21 4 22 2 23 1 24 35 25
REMARK SMILES IDX 36 26 40 27 37 28 39 29 38 30 21 31 22 32 23 33 24 34 25 35
REMARK SMILES IDX 26 36 27 37 32 38 28 39 31 40 29 41 30 42
REMARK H PARENT 16 8 11 20
ROOT
ATOM      1  C   UNL     1     -35.860 147.135   4.552  1.00  0.00    +0.039 A 
ATOM      2  C   UNL     1     -35.935 145.750   4.426  1.00  0.00    +0.028 A 
ATOM      3  C   UNL     1     -35.202 145.075   3.439  1.00  0.00    +0.028 A 
ATOM      4  C   UNL     1     -34.365 145.762   2.543  1.00  0.00    +0.043 A 
ATOM      5  C   UNL     1     -34.291 147.152   2.687  1.00  0.00    +0.028 A 
ATOM      6  C   UNL     1     -35.024 147.828   3.674  1.00  0.00    +0.028 A 
ENDROOT
BRANCH   1   7
ATOM      7  N   UNL     1     -36.547 147.838   5.567  1.00  0.00    -0.354 N 
ATOM      8  H   UNL     1     -37.273 147.243   5.985  1.00  0.00    +0.167 HD
BRANCH   7   9
ATOM      9  C   UNL     1     -36.981 149.169   5.483  1.00  0.00    +0.059 C 
ATOM     10  C   UNL     1     -36.272 154.442   6.355  1.00  0.00    +0.062 A 
ATOM     11  C   UNL     1     -37.377 153.895   5.668  1.00  0.00    +0.016 A 
ATOM     12  C   UNL     1     -35.274 153.598   6.859  1.00  0.00    +0.042 A 
ATOM     13  C   UNL     1     -37.498 152.509   5.476  1.00  0.00    +0.012 A 
ATOM     14  C   UNL     1     -35.422 152.239   6.654  1.00  0.00    +0.050 A 
ATOM     15  C   UNL     1     -36.511 151.678   5.975  1.00  0.00    +0.013 A 
ATOM     16  N   UNL     1     -34.542 151.251   7.079  1.00  0.00    -0.321 N 
ATOM     17  C   UNL     1     -36.283 150.219   5.976  1.00  0.00    +0.073 C 
ATOM     18  C   UNL     1     -34.988 149.994   6.720  1.00  0.00    +0.258 C 
ATOM     19  O   UNL     1     -34.455 148.927   6.968  1.00  0.00    -0.269 OA
ATOM     20  H   UNL     1     -33.688 151.400   7.597  1.00  0.00    +0.170 HD
BRANCH  10  21
ATOM     21  C   UNL     1     -36.116 155.906   6.573  1.00  0.00    +0.337 C 
ATOM     22  O   UNL     1     -35.188 156.396   7.198  1.00  0.00    -0.246 OA
BRANCH  21  23
ATOM     23  O   UNL     1     -37.131 156.590   5.990  1.00  0.00    -0.465 OA
ATOM     24  C   UNL     1     -36.700 157.639   5.121  1.00  0.00    +0.282 C 
ENDBRANCH  21  23
ENDBRANCH  10  21
BRANCH   9  25
ATOM     25  C   UNL     1     -38.253 149.427   4.774  1.00  0.00    -0.001 A 
ATOM     26  C   UNL     1     -39.464 149.473   5.478  1.00  0.00    +0.010 A 
ATOM     27  C   UNL     1     -38.256 149.632   3.386  1.00  0.00    +0.010 A 
ATOM     28  C   UNL     1     -40.660 149.726   4.804  1.00  0.00    +0.001 A 
ATOM     29  C   UNL     1     -39.454 149.886   2.716  1.00  0.00    +0.001 A 
ATOM     30  C   UNL     1     -40.653 149.934   3.425  1.00  0.00    +0.000 A 
ENDBRANCH   9  25
ENDBRANCH   7   9
ENDBRANCH   1   7
BRANCH   4  31
ATOM     31  N   UNL     1     -33.605 145.045   1.544  1.00  0.00    -0.314 N 
ATOM     32  C   UNL     1     -32.575 144.124   2.033  1.00  0.00    +0.153 C 
BRANCH  31  33
ATOM     33  C   UNL     1     -33.906 145.145   0.163  1.00  0.00    +0.240 C 
ATOM     34  O   UNL     1     -33.067 145.027  -0.734  1.00  0.00    -0.273 OA
BRANCH  33  35
ATOM     35  C   UNL     1     -35.390 145.433  -0.182  1.00  0.00    +0.185 C 
BRANCH  35  36
ATOM     36  N   UNL     1     -35.631 146.516  -1.153  1.00  0.00    -0.292 NA
ATOM     37  C   UNL     1     -34.850 147.741  -0.904  1.00  0.00    +0.100 C 
ATOM     38  C   UNL     1     -37.054 146.796  -1.384  1.00  0.00    +0.100 C 
ATOM     39  C   UNL     1     -35.681 149.049  -0.855  1.00  0.00    +0.099 C 
ATOM     40  C   UNL     1     -37.222 147.950  -2.399  1.00  0.00    +0.099 C 
ATOM     41  N   UNL     1     -36.634 149.235  -1.965  1.00  0.00    -0.304 NA
ATOM     42  C   UNL     1     -36.022 149.932  -3.093  1.00  0.00    +0.105 C 
ENDBRANCH  35  36
ENDBRANCH  33  35
ENDBRANCH  31  33
ENDBRANCH   4  31
TORSDOF 9
ENDMDL
MODEL 4
REMARK VINA RESULT:    -8.245      4.434     10.094
REMARK INTER + INTRA:         -14.723
REMARK INTER:                 -12.399
REMARK INTRA:                  -2.324
REMARK UNBOUND:                -2.140
REMARK SMILES COC(=O)c1ccc2c(c1)NC(=O)/C2=C(\Nc1ccc(N(C)C(=O)CN2CCN(C)CC2)cc1)c1ccccc1
REMARK SMILES IDX 17 1 18 2 19 3 20 4 33 5 34 6 16 7 15 9 5 10 6 11 10 12 7 13
REMARK SMILES IDX 9 14 8 15 11 16 14 17 12 18 13 19 3 21 4 22 2 23 1 24 35 25
REMARK SMILES IDX 36 26 40 27 37 28 39 29 38 30 21 31 22 32 23 33 24 34 25 35
REMARK SMILES IDX 26 36 27 37 32 38 28 39 31 40 29 41 30 42
REMARK H PARENT 16 8 11 20
ROOT
ATOM      1  C   UNL     1     -36.958 147.195   2.898  1.00  0.00    +0.039 A 
ATOM      2  C   UNL     1     -36.491 147.831   1.751  1.00  0.00    +0.028 A 
ATOM      3  C   UNL     1     -36.739 147.296   0.478  1.00  0.00    +0.028 A 
ATOM      4  C   UNL     1     -37.465 146.105   0.308  1.00  0.00    +0.043 A 
ATOM      5  C   UNL     1     -37.936 145.481   1.468  1.00  0.00    +0.028 A 
ATOM      6  C   UNL     1     -37.689 146.016   2.742  1.00  0.00    +0.028 A 
ENDROOT
BRANCH   1   7
ATOM      7  N   UNL     1     -36.768 147.735   4.190  1.00  0.00    -0.354 N 
ATOM      8  H   UNL     1     -36.990 147.034   4.907  1.00  0.00    +0.167 HD
BRANCH   7   9
ATOM      9  C   UNL     1     -37.169 149.014   4.603  1.00  0.00    +0.059 C 
ATOM     10  C   UNL     1     -36.108 153.842   6.756  1.00  0.00    +0.062 A 
ATOM     11  C   UNL     1     -37.366 153.467   6.235  1.00  0.00    +0.016 A 
ATOM     12  C   UNL     1     -35.043 152.934   6.733  1.00  0.00    +0.042 A 
ATOM     13  C   UNL     1     -37.572 152.190   5.688  1.00  0.00    +0.012 A 
ATOM     14  C   UNL     1     -35.277 151.685   6.188  1.00  0.00    +0.050 A 
ATOM     15  C   UNL     1     -36.517 151.295   5.667  1.00  0.00    +0.013 A 
ATOM     16  N   UNL     1     -34.349 150.657   6.079  1.00  0.00    -0.321 N 
ATOM     17  C   UNL     1     -36.340 149.909   5.190  1.00  0.00    +0.073 C 
ATOM     18  C   UNL     1     -34.907 149.537   5.495  1.00  0.00    +0.258 C 
ATOM     19  O   UNL     1     -34.362 148.469   5.285  1.00  0.00    -0.269 OA
ATOM     20  H   UNL     1     -33.389 150.688   6.391  1.00  0.00    +0.170 HD
BRANCH  10  21
ATOM     21  C   UNL     1     -35.860 155.188   7.342  1.00  0.00    +0.337 C 
ATOM     22  O   UNL     1     -36.755 155.941   7.692  1.00  0.00    -0.246 OA
BRANCH  21  23
ATOM     23  O   UNL     1     -34.530 155.439   7.424  1.00  0.00    -0.465 OA
ATOM     24  C   UNL     1     -34.106 156.570   6.661  1.00  0.00    +0.282 C 
ENDBRANCH  21  23
ENDBRANCH  10  21
BRANCH   9  25
ATOM     25  C   UNL     1     -38.569 149.409   4.335  1.00  0.00    -0.001 A 
ATOM     26  C   UNL     1     -39.587 149.084   5.243  1.00  0.00    +0.010 A 
ATOM     27  C   UNL     1     -38.890 150.116   3.167  1.00  0.00    +0.010 A 
ATOM     28  C   UNL     1     -40.905 149.467   4.988  1.00  0.00    +0.001 A 
ATOM     29  C   UNL     1     -40.209 150.497   2.916  1.00  0.00    +0.001 A 
ATOM     30  C   UNL     1     -41.214 150.174   3.827  1.00  0.00    +0.000 A 
ENDBRANCH   9  25
ENDBRANCH   7   9
ENDBRANCH   1   7
BRANCH   4  31
ATOM     31  N   UNL     1     -37.723 145.580  -1.015  1.00  0.00    -0.314 N 
ATOM     32  C   UNL     1     -38.838 146.176  -1.755  1.00  0.00    +0.153 C 
BRANCH  31  33
ATOM     33  C   UNL     1     -36.879 144.610  -1.611  1.00  0.00    +0.240 C 
ATOM     34  O   UNL     1     -37.089 143.396  -1.568  1.00  0.00    -0.273 OA
BRANCH  33  35
ATOM     35  C   UNL     1     -35.625 145.166  -2.335  1.00  0.00    +0.185 C 
BRANCH  35  36
ATOM     36  N   UNL     1     -34.358 145.091  -1.585  1.00  0.00    -0.292 NA
ATOM     37  C   UNL     1     -34.426 144.282  -0.355  1.00  0.00    +0.100 C 
ATOM     38  C   UNL     1     -33.726 146.398  -1.361  1.00  0.00    +0.100 C 
ATOM     39  C   UNL     1     -33.903 144.986   0.923  1.00  0.00    +0.099 C 
ATOM     40  C   UNL     1     -32.415 146.237  -0.557  1.00  0.00    +0.099 C 
ATOM     41  N   UNL     1     -32.592 145.649   0.788  1.00  0.00    -0.304 NA
ATOM     42  C   UNL     1     -31.491 144.745   1.108  1.00  0.00    +0.105 C 
ENDBRANCH  35  36
ENDBRANCH  33  35
ENDBRANCH  31  33
ENDBRANCH   4  31
TORSDOF 9
ENDMDL
MODEL 5
REMARK VINA RESULT:    -8.144      3.397      9.356
REMARK INTER + INTRA:         -14.570
REMARK INTER:                 -12.230
REMARK INTRA:                  -2.340
REMARK UNBOUND:                -2.140
REMARK SMILES COC(=O)c1ccc2c(c1)NC(=O)/C2=C(\Nc1ccc(N(C)C(=O)CN2CCN(C)CC2)cc1)c1ccccc1
REMARK SMILES IDX 17 1 18 2 19 3 20 4 33 5 34 6 16 7 15 9 5 10 6 11 10 12 7 13
REMARK SMILES IDX 9 14 8 15 11 16 14 17 12 18 13 19 3 21 4 22 2 23 1 24 35 25
REMARK SMILES IDX 36 26 40 27 37 28 39 29 38 30 21 31 22 32 23 33 24 34 25 35
REMARK SMILES IDX 26 36 27 37 32 38 28 39 31 40 29 41 30 42
REMARK H PARENT 16 8 11 20
ROOT
ATOM      1  C   UNL     1     -36.227 147.318   4.865  1.00  0.00    +0.039 A 
ATOM      2  C   UNL     1     -35.031 147.669   4.244  1.00  0.00    +0.028 A 
ATOM      3  C   UNL     1     -34.445 146.832   3.283  1.00  0.00    +0.028 A 
ATOM      4  C   UNL     1     -35.037 145.614   2.907  1.00  0.00    +0.043 A 
ATOM      5  C   UNL     1     -36.243 145.278   3.532  1.00  0.00    +0.028 A 
ATOM      6  C   UNL     1     -36.830 146.115   4.493  1.00  0.00    +0.028 A 
ENDROOT
BRANCH   1   7
ATOM      7  N   UNL     1     -36.867 148.163   5.800  1.00  0.00    -0.354 N 
ATOM      8  H   UNL     1     -37.607 147.651   6.296  1.00  0.00    +0.167 HD
BRANCH   7   9
ATOM      9  C   UNL     1     -37.251 149.491   5.564  1.00  0.00    +0.059 C 
ATOM     10  C   UNL     1     -36.496 154.802   6.105  1.00  0.00    +0.062 A 
ATOM     11  C   UNL     1     -37.533 154.224   5.340  1.00  0.00    +0.016 A 
ATOM     12  C   UNL     1     -35.586 153.982   6.782  1.00  0.00    +0.042 A 
ATOM     13  C   UNL     1     -37.671 152.830   5.243  1.00  0.00    +0.012 A 
ATOM     14  C   UNL     1     -35.748 152.614   6.668  1.00  0.00    +0.050 A 
ATOM     15  C   UNL     1     -36.769 152.022   5.914  1.00  0.00    +0.013 A 
ATOM     16  N   UNL     1     -34.949 151.646   7.264  1.00  0.00    -0.321 N 
ATOM     17  C   UNL     1     -36.584 150.564   6.052  1.00  0.00    +0.073 C 
ATOM     18  C   UNL     1     -35.387 150.374   6.955  1.00  0.00    +0.258 C 
ATOM     19  O   UNL     1     -34.916 149.320   7.342  1.00  0.00    -0.269 OA
ATOM     20  H   UNL     1     -34.155 151.819   7.863  1.00  0.00    +0.170 HD
BRANCH  10  21
ATOM     21  C   UNL     1     -36.325 156.276   6.226  1.00  0.00    +0.337 C 
ATOM     22  O   UNL     1     -35.494 156.796   6.954  1.00  0.00    -0.246 OA
BRANCH  21  23
ATOM     23  O   UNL     1     -37.207 156.930   5.431  1.00  0.00    -0.465 OA
ATOM     24  C   UNL     1     -36.592 157.754   4.439  1.00  0.00    +0.282 C 
ENDBRANCH  21  23
ENDBRANCH  10  21
BRANCH   9  25
ATOM     25  C   UNL     1     -38.428 149.717   4.697  1.00  0.00    -0.001 A 
ATOM     26  C   UNL     1     -38.281 149.798   3.305  1.00  0.00    +0.010 A 
ATOM     27  C   UNL     1     -39.704 149.848   5.263  1.00  0.00    +0.010 A 
ATOM     28  C   UNL     1     -39.397 150.003   2.492  1.00  0.00    +0.001 A 
ATOM     29  C   UNL     1     -40.818 150.052   4.447  1.00  0.00    +0.001 A 
ATOM     30  C   UNL     1     -40.663 150.127   3.063  1.00  0.00    +0.000 A 
ENDBRANCH   9  25
ENDBRANCH   7   9
ENDBRANCH   1   7
BRANCH   4  31
ATOM     31  N   UNL     1     -34.425 144.774   1.902  1.00  0.00    -0.314 N 
ATOM     32  C   UNL     1     -35.219 143.643   1.414  1.00  0.00    +0.153 C 
BRANCH  31  33
ATOM     33  C   UNL     1     -33.163 145.085   1.336  1.00  0.00    +0.240 C 
ATOM     34  O   UNL     1     -32.096 144.612   1.734  1.00  0.00    -0.273 OA
BRANCH  33  35
ATOM     35  C   UNL     1     -33.185 146.095   0.160  1.00  0.00    +0.185 C 
BRANCH  35  36
ATOM     36  N   UNL     1     -34.519 146.510  -0.312  1.00  0.00    -0.292 NA
ATOM     37  C   UNL     1     -34.918 145.920  -1.602  1.00  0.00    +0.100 C 
ATOM     38  C   UNL     1     -34.735 147.963  -0.270  1.00  0.00    +0.100 C 
ATOM     39  C   UNL     1     -35.401 146.937  -2.667  1.00  0.00    +0.099 C 
ATOM     40  C   UNL     1     -36.146 148.317  -0.794  1.00  0.00    +0.099 C 
ATOM     41  N   UNL     1     -36.393 147.922  -2.197  1.00  0.00    -0.304 NA
ATOM     42  C   UNL     1     -37.760 147.439  -2.367  1.00  0.00    +0.105 C 
ENDBRANCH  35  36
ENDBRANCH  33  35
ENDBRANCH  31  33
ENDBRANCH   4  31
TORSDOF 9
ENDMDL
MODEL 6
REMARK VINA RESULT:    -8.124      5.286      8.744
REMARK INTER + INTRA:         -14.539
REMARK INTER:                 -12.437
REMARK INTRA:                  -2.101
REMARK UNBOUND:                -2.140
REMARK SMILES COC(=O)c1ccc2c(c1)NC(=O)/C2=C(\Nc1ccc(N(C)C(=O)CN2CCN(C)CC2)cc1)c1ccccc1
REMARK SMILES IDX 17 1 18 2 19 3 20 4 33 5 34 6 16 7 15 9 5 10 6 11 10 12 7 13
REMARK SMILES IDX 9 14 8 15 11 16 14 17 12 18 13 19 3 21 4 22 2 23 1 24 35 25
REMARK SMILES IDX 36 26 40 27 37 28 39 29 38 30 21 31 22 32 23 33 24 34 25 35
REMARK SMILES IDX 26 36 27 37 32 38 28 39 31 40 29 41 30 42
REMARK H PARENT 16 8 11 20
ROOT
ATOM      1  C   UNL     1     -37.525 146.215   2.117  1.00  0.00    +0.039 A 
ATOM      2  C   UNL     1     -38.578 146.904   2.714  1.00  0.00    +0.028 A 
ATOM      3  C   UNL     1     -38.361 147.724   3.831  1.00  0.00    +0.028 A 
ATOM      4  C   UNL     1     -37.082 147.886   4.390  1.00  0.00    +0.043 A 
ATOM      5  C   UNL     1     -36.032 147.195   3.775  1.00  0.00    +0.028 A 
ATOM      6  C   UNL     1     -36.248 146.375   2.657  1.00  0.00    +0.028 A 
ENDROOT
BRANCH   1   7
ATOM      7  N   UNL     1     -37.703 145.421   0.962  1.00  0.00    -0.354 N 
ATOM      8  H   UNL     1     -36.947 144.731   0.882  1.00  0.00    +0.167 HD
BRANCH   7   9
ATOM      9  C   UNL     1     -38.076 145.900  -0.303  1.00  0.00    +0.059 C 
ATOM     10  C   UNL     1     -41.631 146.356  -4.331  1.00  0.00    +0.062 A 
ATOM     11  C   UNL     1     -40.375 147.001  -4.307  1.00  0.00    +0.016 A 
ATOM     12  C   UNL     1     -42.017 145.537  -3.263  1.00  0.00    +0.042 A 
ATOM     13  C   UNL     1     -39.497 146.837  -3.224  1.00  0.00    +0.012 A 
ATOM     14  C   UNL     1     -41.132 145.396  -2.211  1.00  0.00    +0.050 A 
ATOM     15  C   UNL     1     -39.881 146.027  -2.170  1.00  0.00    +0.013 A 
ATOM     16  N   UNL     1     -41.337 144.629  -1.071  1.00  0.00    -0.321 N 
ATOM     17  C   UNL     1     -39.262 145.620  -0.893  1.00  0.00    +0.073 C 
ATOM     18  C   UNL     1     -40.252 144.697  -0.220  1.00  0.00    +0.258 C 
ATOM     19  O   UNL     1     -40.115 144.119   0.845  1.00  0.00    -0.269 OA
ATOM     20  H   UNL     1     -42.154 144.072  -0.870  1.00  0.00    +0.170 HD
BRANCH  10  21
ATOM     21  C   UNL     1     -42.582 146.511  -5.466  1.00  0.00    +0.337 C 
ATOM     22  O   UNL     1     -43.424 147.394  -5.518  1.00  0.00    -0.246 OA
BRANCH  21  23
ATOM     23  O   UNL     1     -42.376 145.551  -6.401  1.00  0.00    -0.465 OA
ATOM     24  C   UNL     1     -41.607 145.990  -7.522  1.00  0.00    +0.282 C 
ENDBRANCH  21  23
ENDBRANCH  10  21
BRANCH   9  25
ATOM     25  C   UNL     1     -37.127 146.795  -1.000  1.00  0.00    -0.001 A 
ATOM     26  C   UNL     1     -36.190 146.274  -1.903  1.00  0.00    +0.010 A 
ATOM     27  C   UNL     1     -37.161 148.177  -0.764  1.00  0.00    +0.010 A 
ATOM     28  C   UNL     1     -35.302 147.125  -2.564  1.00  0.00    +0.001 A 
ATOM     29  C   UNL     1     -36.272 149.025  -1.427  1.00  0.00    +0.001 A 
ATOM     30  C   UNL     1     -35.346 148.499  -2.327  1.00  0.00    +0.000 A 
ENDBRANCH   9  25
ENDBRANCH   7   9
ENDBRANCH   1   7
BRANCH   4  31
ATOM     31  N   UNL     1     -36.878 148.750   5.532  1.00  0.00    -0.314 N 
ATOM     32  C   UNL     1     -36.727 148.096   6.835  1.00  0.00    +0.153 C 
BRANCH  31  33
ATOM     33  C   UNL     1     -36.724 150.151   5.390  1.00  0.00    +0.240 C 
ATOM     34  O   UNL     1     -37.602 150.899   4.954  1.00  0.00    -0.273 OA
BRANCH  33  35
ATOM     35  C   UNL     1     -35.345 150.721   5.810  1.00  0.00    +0.185 C 
BRANCH  35  36
ATOM     36  N   UNL     1     -35.230 152.191   5.832  1.00  0.00    -0.292 NA
ATOM     37  C   UNL     1     -33.977 152.712   5.258  1.00  0.00    +0.100 C 
ATOM     38  C   UNL     1     -35.539 152.788   7.138  1.00  0.00    +0.100 C 
ATOM     39  C   UNL     1     -33.205 153.706   6.163  1.00  0.00    +0.099 C 
ATOM     40  C   UNL     1     -35.381 154.325   7.083  1.00  0.00    +0.099 C 
ATOM     41  N   UNL     1     -34.017 154.788   6.751  1.00  0.00    -0.304 NA
ATOM     42  C   UNL     1     -34.064 155.963   5.886  1.00  0.00    +0.105 C 
ENDBRANCH  35  36
ENDBRANCH  33  35
ENDBRANCH  31  33
ENDBRANCH   4  31
TORSDOF 9
ENDMDL
MODEL 7
REMARK VINA RESULT:    -8.024      3.939     10.024
REMARK INTER + INTRA:         -14.386
REMARK INTER:                 -12.618
REMARK INTRA:                  -1.768
REMARK UNBOUND:                -2.140
REMARK SMILES COC(=O)c1ccc2c(c1)NC(=O)/C2=C(\Nc1ccc(N(C)C(=O)CN2CCN(C)CC2)cc1)c1ccccc1
REMARK SMILES IDX 17 1 18 2 19 3 20 4 33 5 34 6 16 7 15 9 5 10 6 11 10 12 7 13
REMARK SMILES IDX 9 14 8 15 11 16 14 17 12 18 13 19 3 21 4 22 2 23 1 24 35 25
REMARK SMILES IDX 36 26 40 27 37 28 39 29 38 30 21 31 22 32 23 33 24 34 25 35
REMARK SMILES IDX 26 36 27 37 32 38 28 39 31 40 29 41 30 42
REMARK H PARENT 16 8 11 20
ROOT
ATOM      1  C   UNL     1     -38.307 148.529   2.690  1.00  0.00    +0.039 A 
ATOM      2  C   UNL     1     -39.338 148.068   1.875  1.00  0.00    +0.028 A 
ATOM      3  C   UNL     1     -39.108 147.762   0.526  1.00  0.00    +0.028 A 
ATOM      4  C   UNL     1     -37.837 147.903  -0.056  1.00  0.00    +0.043 A 
ATOM      5  C   UNL     1     -36.807 148.358   0.777  1.00  0.00    +0.028 A 
ATOM      6  C   UNL     1     -37.037 148.664   2.127  1.00  0.00    +0.028 A 
ENDROOT
BRANCH   1   7
ATOM      7  N   UNL     1     -38.495 148.798   4.065  1.00  0.00    -0.354 N 
ATOM      8  H   UNL     1     -39.479 149.026   4.253  1.00  0.00    +0.167 HD
BRANCH   7   9
ATOM      9  C   UNL     1     -37.642 149.572   4.866  1.00  0.00    +0.059 C 
ATOM     10  C   UNL     1     -35.886 154.334   6.684  1.00  0.00    +0.062 A 
ATOM     11  C   UNL     1     -35.409 153.086   7.142  1.00  0.00    +0.016 A 
ATOM     12  C   UNL     1     -36.876 154.383   5.696  1.00  0.00    +0.042 A 
ATOM     13  C   UNL     1     -35.912 151.882   6.624  1.00  0.00    +0.012 A 
ATOM     14  C   UNL     1     -37.352 153.181   5.204  1.00  0.00    +0.050 A 
ATOM     15  C   UNL     1     -36.891 151.934   5.647  1.00  0.00    +0.013 A 
ATOM     16  N   UNL     1     -38.327 153.029   4.227  1.00  0.00    -0.321 N 
ATOM     17  C   UNL     1     -37.648 150.925   4.881  1.00  0.00    +0.073 C 
ATOM     18  C   UNL     1     -38.565 151.696   3.959  1.00  0.00    +0.258 C 
ATOM     19  O   UNL     1     -39.341 151.238   3.139  1.00  0.00    -0.269 OA
ATOM     20  H   UNL     1     -38.805 153.776   3.745  1.00  0.00    +0.170 HD
BRANCH  10  21
ATOM     21  C   UNL     1     -35.372 155.626   7.215  1.00  0.00    +0.337 C 
ATOM     22  O   UNL     1     -34.199 155.814   7.497  1.00  0.00    -0.246 OA
BRANCH  21  23
ATOM     23  O   UNL     1     -36.374 156.530   7.334  1.00  0.00    -0.465 OA
ATOM     24  C   UNL     1     -36.065 157.814   6.787  1.00  0.00    +0.282 C 
ENDBRANCH  21  23
ENDBRANCH  10  21
BRANCH   9  25
ATOM     25  C   UNL     1     -36.720 148.852   5.771  1.00  0.00    -0.001 A 
ATOM     26  C   UNL     1     -37.142 148.453   7.047  1.00  0.00    +0.010 A 
ATOM     27  C   UNL     1     -35.413 148.560   5.357  1.00  0.00    +0.010 A 
ATOM     28  C   UNL     1     -36.269 147.767   7.894  1.00  0.00    +0.001 A 
ATOM     29  C   UNL     1     -34.543 147.873   6.205  1.00  0.00    +0.001 A 
ATOM     30  C   UNL     1     -34.973 147.476   7.471  1.00  0.00    +0.000 A 
ENDBRANCH   9  25
ENDBRANCH   7   9
ENDBRANCH   1   7
BRANCH   4  31
ATOM     31  N   UNL     1     -37.617 147.566  -1.445  1.00  0.00    -0.314 N 
ATOM     32  C   UNL     1     -38.661 146.775  -2.104  1.00  0.00    +0.153 C 
BRANCH  31  33
ATOM     33  C   UNL     1     -36.503 148.060  -2.167  1.00  0.00    +0.240 C 
ATOM     34  O   UNL     1     -36.429 149.206  -2.617  1.00  0.00    -0.273 OA
BRANCH  33  35
ATOM     35  C   UNL     1     -35.344 147.053  -2.385  1.00  0.00    +0.185 C 
BRANCH  35  36
ATOM     36  N   UNL     1     -34.864 146.348  -1.182  1.00  0.00    -0.292 NA
ATOM     37  C   UNL     1     -33.562 146.820  -0.680  1.00  0.00    +0.100 C 
ATOM     38  C   UNL     1     -34.925 144.884  -1.293  1.00  0.00    +0.100 C 
ATOM     39  C   UNL     1     -32.506 145.709  -0.449  1.00  0.00    +0.099 C 
ATOM     40  C   UNL     1     -34.390 144.221  -0.002  1.00  0.00    +0.099 C 
ATOM     41  N   UNL     1     -32.980 144.534   0.307  1.00  0.00    -0.304 NA
ATOM     42  C   UNL     1     -32.788 144.702   1.745  1.00  0.00    +0.105 C 
ENDBRANCH  35  36
ENDBRANCH  33  35
ENDBRANCH  31  33
ENDBRANCH   4  31
TORSDOF 9
ENDMDL
MODEL 8
REMARK VINA RESULT:    -7.853      3.931      9.764
REMARK INTER + INTRA:         -14.125
REMARK INTER:                 -11.779
REMARK INTRA:                  -2.347
REMARK UNBOUND:                -2.140
REMARK SMILES COC(=O)c1ccc2c(c1)NC(=O)/C2=C(\Nc1ccc(N(C)C(=O)CN2CCN(C)CC2)cc1)c1ccccc1
REMARK SMILES IDX 17 1 18 2 19 3 20 4 33 5 34 6 16 7 15 9 5 10 6 11 10 12 7 13
REMARK SMILES IDX 9 14 8 15 11 16 14 17 12 18 13 19 3 21 4 22 2 23 1 24 35 25
REMARK SMILES IDX 36 26 40 27 37 28 39 29 38 30 21 31 22 32 23 33 24 34 25 35
REMARK SMILES IDX 26 36 27 37 32 38 28 39 31 40 29 41 30 42
REMARK H PARENT 16 8 11 20
ROOT
ATOM      1  C   UNL     1     -37.296 147.101   3.873  1.00  0.00    +0.039 A 
ATOM      2  C   UNL     1     -37.404 145.723   4.041  1.00  0.00    +0.028 A 
ATOM      3  C   UNL     1     -36.763 144.837   3.163  1.00  0.00    +0.028 A 
ATOM      4  C   UNL     1     -35.988 145.299   2.086  1.00  0.00    +0.043 A 
ATOM      5  C   UNL     1     -35.880 146.686   1.933  1.00  0.00    +0.028 A 
ATOM      6  C   UNL     1     -36.521 147.573   2.812  1.00  0.00    +0.028 A 
ENDROOT
BRANCH   1   7
ATOM      7  N   UNL     1     -37.889 148.019   4.769  1.00  0.00    -0.354 N 
ATOM      8  H   UNL     1     -38.745 148.415   4.361  1.00  0.00    +0.167 HD
BRANCH   7   9
ATOM      9  C   UNL     1     -37.200 148.985   5.517  1.00  0.00    +0.059 C 
ATOM     10  C   UNL     1     -36.160 154.116   6.807  1.00  0.00    +0.062 A 
ATOM     11  C   UNL     1     -35.581 153.003   7.456  1.00  0.00    +0.016 A 
ATOM     12  C   UNL     1     -37.065 153.920   5.757  1.00  0.00    +0.042 A 
ATOM     13  C   UNL     1     -35.898 151.692   7.068  1.00  0.00    +0.012 A 
ATOM     14  C   UNL     1     -37.356 152.617   5.397  1.00  0.00    +0.050 A 
ATOM     15  C   UNL     1     -36.792 151.501   6.029  1.00  0.00    +0.013 A 
ATOM     16  N   UNL     1     -38.224 152.226   4.385  1.00  0.00    -0.321 N 
ATOM     17  C   UNL     1     -37.363 150.319   5.353  1.00  0.00    +0.073 C 
ATOM     18  C   UNL     1     -38.284 150.851   4.279  1.00  0.00    +0.258 C 
ATOM     19  O   UNL     1     -38.932 150.203   3.476  1.00  0.00    -0.269 OA
ATOM     20  H   UNL     1     -38.745 152.843   3.779  1.00  0.00    +0.170 HD
BRANCH  10  21
ATOM     21  C   UNL     1     -35.844 155.517   7.197  1.00  0.00    +0.337 C 
ATOM     22  O   UNL     1     -36.692 156.388   7.312  1.00  0.00    -0.246 OA
BRANCH  21  23
ATOM     23  O   UNL     1     -34.512 155.672   7.398  1.00  0.00    -0.465 OA
ATOM     24  C   UNL     1     -33.791 156.063   6.228  1.00  0.00    +0.282 C 
ENDBRANCH  21  23
ENDBRANCH  10  21
BRANCH   9  25
ATOM     25  C   UNL     1     -36.278 148.503   6.568  1.00  0.00    -0.001 A 
ATOM     26  C   UNL     1     -36.748 148.247   7.864  1.00  0.00    +0.010 A 
ATOM     27  C   UNL     1     -34.923 148.295   6.274  1.00  0.00    +0.010 A 
ATOM     28  C   UNL     1     -35.874 147.784   8.849  1.00  0.00    +0.001 A 
ATOM     29  C   UNL     1     -34.053 147.831   7.262  1.00  0.00    +0.001 A 
ATOM     30  C   UNL     1     -34.529 147.574   8.547  1.00  0.00    +0.000 A 
ENDBRANCH   9  25
ENDBRANCH   7   9
ENDBRANCH   1   7
BRANCH   4  31
ATOM     31  N   UNL     1     -35.321 144.368   1.202  1.00  0.00    -0.314 N 
ATOM     32  C   UNL     1     -35.792 142.981   1.228  1.00  0.00    +0.153 C 
BRANCH  31  33
ATOM     33  C   UNL     1     -34.332 144.792   0.280  1.00  0.00    +0.240 C 
ATOM     34  O   UNL     1     -33.242 145.264   0.609  1.00  0.00    -0.273 OA
BRANCH  33  35
ATOM     35  C   UNL     1     -34.704 144.642  -1.218  1.00  0.00    +0.185 C 
BRANCH  35  36
ATOM     36  N   UNL     1     -35.252 145.844  -1.873  1.00  0.00    -0.292 NA
ATOM     37  C   UNL     1     -34.441 147.061  -1.687  1.00  0.00    +0.100 C 
ATOM     38  C   UNL     1     -36.676 146.072  -1.592  1.00  0.00    +0.100 C 
ATOM     39  C   UNL     1     -35.220 148.295  -1.165  1.00  0.00    +0.099 C 
ATOM     40  C   UNL     1     -37.170 147.356  -2.299  1.00  0.00    +0.099 C 
ATOM     41  N   UNL     1     -36.481 148.592  -1.871  1.00  0.00    -0.304 NA
ATOM     42  C   UNL     1     -36.270 149.487  -3.005  1.00  0.00    +0.105 C 
ENDBRANCH  35  36
ENDBRANCH  33  35
ENDBRANCH  31  33
ENDBRANCH   4  31
TORSDOF 9
ENDMDL
MODEL 9
REMARK VINA RESULT:    -7.775      5.359      9.417
REMARK INTER + INTRA:         -14.005
REMARK INTER:                 -11.522
REMARK INTRA:                  -2.483
REMARK UNBOUND:                -2.140
REMARK SMILES COC(=O)c1ccc2c(c1)NC(=O)/C2=C(\Nc1ccc(N(C)C(=O)CN2CCN(C)CC2)cc1)c1ccccc1
REMARK SMILES IDX 17 1 18 2 19 3 20 4 33 5 34 6 16 7 15 9 5 10 6 11 10 12 7 13
REMARK SMILES IDX 9 14 8 15 11 16 14 17 12 18 13 19 3 21 4 22 2 23 1 24 35 25
REMARK SMILES IDX 36 26 40 27 37 28 39 29 38 30 21 31 22 32 23 33 24 34 25 35
REMARK SMILES IDX 26 36 27 37 32 38 28 39 31 40 29 41 30 42
REMARK H PARENT 16 8 11 20
ROOT
ATOM      1  C   UNL     1     -37.069 145.108   1.854  1.00  0.00    +0.039 A 
ATOM      2  C   UNL     1     -37.995 145.485   2.824  1.00  0.00    +0.028 A 
ATOM      3  C   UNL     1     -37.578 146.056   4.035  1.00  0.00    +0.028 A 
ATOM      4  C   UNL     1     -36.218 146.273   4.319  1.00  0.00    +0.043 A 
ATOM      5  C   UNL     1     -35.300 145.898   3.332  1.00  0.00    +0.028 A 
ATOM      6  C   UNL     1     -35.717 145.327   2.119  1.00  0.00    +0.028 A 
ENDROOT
BRANCH   1   7
ATOM      7  N   UNL     1     -37.461 144.577   0.605  1.00  0.00    -0.354 N 
ATOM      8  H   UNL     1     -36.788 143.867   0.291  1.00  0.00    +0.167 HD
BRANCH   7   9
ATOM      9  C   UNL     1     -37.940 145.324  -0.482  1.00  0.00    +0.059 C 
ATOM     10  C   UNL     1     -41.634 146.317  -4.281  1.00  0.00    +0.062 A 
ATOM     11  C   UNL     1     -40.494 147.120  -4.056  1.00  0.00    +0.016 A 
ATOM     12  C   UNL     1     -41.857 145.183  -3.492  1.00  0.00    +0.042 A 
ATOM     13  C   UNL     1     -39.572 146.802  -3.047  1.00  0.00    +0.012 A 
ATOM     14  C   UNL     1     -40.931 144.895  -2.507  1.00  0.00    +0.050 A 
ATOM     15  C   UNL     1     -39.794 145.680  -2.269  1.00  0.00    +0.013 A 
ATOM     16  N   UNL     1     -40.981 143.818  -1.631  1.00  0.00    -0.321 N 
ATOM     17  C   UNL     1     -39.084 145.035  -1.147  1.00  0.00    +0.073 C 
ATOM     18  C   UNL     1     -39.896 143.817  -0.776  1.00  0.00    +0.258 C 
ATOM     19  O   UNL     1     -39.642 142.994   0.086  1.00  0.00    -0.269 OA
ATOM     20  H   UNL     1     -41.695 143.105  -1.608  1.00  0.00    +0.170 HD
BRANCH  10  21
ATOM     21  C   UNL     1     -42.629 146.630  -5.343  1.00  0.00    +0.337 C 
ATOM     22  O   UNL     1     -43.443 147.536  -5.253  1.00  0.00    -0.246 OA
BRANCH  21  23
ATOM     23  O   UNL     1     -42.497 145.781  -6.392  1.00  0.00    -0.465 OA
ATOM     24  C   UNL     1     -41.618 146.254  -7.414  1.00  0.00    +0.282 C 
ENDBRANCH  21  23
ENDBRANCH  10  21
BRANCH   9  25
ATOM     25  C   UNL     1     -37.163 146.517  -0.884  1.00  0.00    -0.001 A 
ATOM     26  C   UNL     1     -36.194 146.428  -1.893  1.00  0.00    +0.010 A 
ATOM     27  C   UNL     1     -37.393 147.750  -0.257  1.00  0.00    +0.010 A 
ATOM     28  C   UNL     1     -35.470 147.559  -2.273  1.00  0.00    +0.001 A 
ATOM     29  C   UNL     1     -36.668 148.879  -0.641  1.00  0.00    +0.001 A 
ATOM     30  C   UNL     1     -35.709 148.783  -1.649  1.00  0.00    +0.000 A 
ENDBRANCH   9  25
ENDBRANCH   7   9
ENDBRANCH   1   7
BRANCH   4  31
ATOM     31  N   UNL     1     -35.811 146.878   5.567  1.00  0.00    -0.314 N 
ATOM     32  C   UNL     1     -35.650 145.981   6.714  1.00  0.00    +0.153 C 
BRANCH  31  33
ATOM     33  C   UNL     1     -35.480 148.253   5.657  1.00  0.00    +0.240 C 
ATOM     34  O   UNL     1     -34.399 148.726   5.297  1.00  0.00    -0.273 OA
BRANCH  33  35
ATOM     35  C   UNL     1     -36.575 149.168   6.264  1.00  0.00    +0.185 C 
BRANCH  35  36
ATOM     36  N   UNL     1     -37.906 149.091   5.633  1.00  0.00    -0.292 NA
ATOM     37  C   UNL     1     -38.025 149.844   4.372  1.00  0.00    +0.100 C 
ATOM     38  C   UNL     1     -39.014 149.367   6.558  1.00  0.00    +0.100 C 
ATOM     39  C   UNL     1     -39.228 150.820   4.302  1.00  0.00    +0.099 C 
ATOM     40  C   UNL     1     -40.370 149.283   5.819  1.00  0.00    +0.099 C 
ATOM     41  N   UNL     1     -40.526 150.255   4.716  1.00  0.00    -0.304 NA
ATOM     42  C   UNL     1     -41.239 149.654   3.592  1.00  0.00    +0.105 C 
ENDBRANCH  35  36
ENDBRANCH  33  35
ENDBRANCH  31  33
ENDBRANCH   4  31
TORSDOF 9
ENDMDL
MODEL 10
REMARK VINA RESULT:    -7.661      3.574      6.238
REMARK INTER + INTRA:         -13.831
REMARK INTER:                 -11.586
REMARK INTRA:                  -2.245
REMARK UNBOUND:                -2.140
REMARK SMILES COC(=O)c1ccc2c(c1)NC(=O)/C2=C(\Nc1ccc(N(C)C(=O)CN2CCN(C)CC2)cc1)c1ccccc1
REMARK SMILES IDX 17 1 18 2 19 3 20 4 33 5 34 6 16 7 15 9 5 10 6 11 10 12 7 13
REMARK SMILES IDX 9 14 8 15 11 16 14 17 12 18 13 19 3 21 4 22 2 23 1 24 35 25
REMARK SMILES IDX 36 26 40 27 37 28 39 29 38 30 21 31 22 32 23 33 24 34 25 35
REMARK SMILES IDX 26 36 27 37 32 38 28 39 31 40 29 41 30 42
REMARK H PARENT 16 8 11 20
ROOT
ATOM      1  C   UNL     1     -36.509 148.415   4.651  1.00  0.00    +0.039 A 
ATOM      2  C   UNL     1     -37.229 149.605   4.584  1.00  0.00    +0.028 A 
ATOM      3  C   UNL     1     -36.764 150.766   5.220  1.00  0.00    +0.028 A 
ATOM      4  C   UNL     1     -35.561 150.777   5.946  1.00  0.00    +0.043 A 
ATOM      5  C   UNL     1     -34.843 149.577   5.998  1.00  0.00    +0.028 A 
ATOM      6  C   UNL     1     -35.307 148.416   5.361  1.00  0.00    +0.028 A 
ENDROOT
BRANCH   1   7
ATOM      7  N   UNL     1     -36.925 147.243   3.980  1.00  0.00    -0.354 N 
ATOM      8  H   UNL     1     -36.534 146.411   4.438  1.00  0.00    +0.167 HD
BRANCH   7   9
ATOM      9  C   UNL     1     -36.964 147.075   2.588  1.00  0.00    +0.059 C 
ATOM     10  C   UNL     1     -39.657 146.834  -2.077  1.00  0.00    +0.062 A 
ATOM     11  C   UNL     1     -38.252 146.746  -1.968  1.00  0.00    +0.016 A 
ATOM     12  C   UNL     1     -40.438 146.994  -0.926  1.00  0.00    +0.042 A 
ATOM     13  C   UNL     1     -37.616 146.817  -0.719  1.00  0.00    +0.012 A 
ATOM     14  C   UNL     1     -39.783 147.059   0.290  1.00  0.00    +0.050 A 
ATOM     15  C   UNL     1     -38.390 146.974   0.417  1.00  0.00    +0.013 A 
ATOM     16  N   UNL     1     -40.385 147.214   1.532  1.00  0.00    -0.321 N 
ATOM     17  C   UNL     1     -38.106 147.089   1.861  1.00  0.00    +0.073 C 
ATOM     18  C   UNL     1     -39.446 147.233   2.545  1.00  0.00    +0.258 C 
ATOM     19  O   UNL     1     -39.657 147.329   3.741  1.00  0.00    -0.269 OA
ATOM     20  H   UNL     1     -41.376 147.289   1.706  1.00  0.00    +0.170 HD
BRANCH  10  21
ATOM     21  C   UNL     1     -40.360 146.763  -3.387  1.00  0.00    +0.337 C 
ATOM     22  O   UNL     1     -39.977 147.353  -4.385  1.00  0.00    -0.246 OA
BRANCH  21  23
ATOM     23  O   UNL     1     -41.455 145.968  -3.303  1.00  0.00    -0.465 OA
ATOM     24  C   UNL     1     -41.212 144.607  -3.664  1.00  0.00    +0.282 C 
ENDBRANCH  21  23
ENDBRANCH  10  21
BRANCH   9  25
ATOM     25  C   UNL     1     -35.673 146.917   1.885  1.00  0.00    -0.001 A 
ATOM     26  C   UNL     1     -34.970 148.040   1.425  1.00  0.00    +0.010 A 
ATOM     27  C   UNL     1     -35.138 145.638   1.674  1.00  0.00    +0.010 A 
ATOM     28  C   UNL     1     -33.748 147.884   0.769  1.00  0.00    +0.001 A 
ATOM     29  C   UNL     1     -33.915 145.486   1.019  1.00  0.00    +0.001 A 
ATOM     30  C   UNL     1     -33.221 146.609   0.570  1.00  0.00    +0.000 A 
ENDBRANCH   9  25
ENDBRANCH   7   9
ENDBRANCH   1   7
BRANCH   4  31
ATOM     31  N   UNL     1     -35.092 151.989   6.580  1.00  0.00    -0.314 N 
ATOM     32  C   UNL     1     -35.392 152.147   8.006  1.00  0.00    +0.153 C 
BRANCH  31  33
ATOM     33  C   UNL     1     -34.291 152.932   5.889  1.00  0.00    +0.240 C 
ATOM     34  O   UNL     1     -33.802 152.733   4.774  1.00  0.00    -0.273 OA
BRANCH  33  35
ATOM     35  C   UNL     1     -34.035 154.268   6.632  1.00  0.00    +0.185 C 
BRANCH  35  36
ATOM     36  N   UNL     1     -34.756 155.446   6.114  1.00  0.00    -0.292 NA
ATOM     37  C   UNL     1     -36.191 155.219   5.866  1.00  0.00    +0.100 C 
ATOM     38  C   UNL     1     -34.087 156.096   4.980  1.00  0.00    +0.100 C 
ATOM     39  C   UNL     1     -36.685 155.629   4.455  1.00  0.00    +0.099 C 
ATOM     40  C   UNL     1     -34.911 157.308   4.486  1.00  0.00    +0.099 C 
ATOM     41  N   UNL     1     -36.266 156.969   4.003  1.00  0.00    -0.304 NA
ATOM     42  C   UNL     1     -37.227 157.997   4.390  1.00  0.00    +0.105 C 
ENDBRANCH  35  36
ENDBRANCH  33  35
ENDBRANCH  31  33
ENDBRANCH   4  31
TORSDOF 9
ENDMDL
