REMARK SMILES O=[S@@]1CCc2nc(N3CCC(c4ncc(Cl)cn4)CC3)nc(NC3(CO)CCC3)c21
REMARK SMILES IDX 23 1 24 3 28 4 27 5 29 6 25 7 26 8 22 10 21 11 30 12 7 13
REMARK SMILES IDX 5 14 2 15 6 16 4 17 1 18 3 19 8 20 9 21 20 22 10 23 19 24
REMARK SMILES IDX 11 25 12 26 13 27 18 28 14 29 17 30 15 31 16 32
REMARK H PARENT 23 2 26 9
ROOT
ATOM      1  N   UNL     1      -3.430  -0.527   0.277  1.00  0.00    -0.361 N 
ATOM      2  H   UNL     1      -3.956  -0.787   1.113  1.00  0.00    +0.162 HD
ENDROOT
BRANCH   1   3
ATOM      3  C   UNL     1      -3.532   0.889  -0.011  1.00  0.00    +0.062 C 
ATOM      4  C   UNL     1      -4.466   2.085  -1.540  1.00  0.00    +0.005 C 
ATOM      5  C   UNL     1      -5.011   1.229  -0.381  1.00  0.00    +0.031 C 
ATOM      6  C   UNL     1      -3.185   1.231  -1.491  1.00  0.00    +0.031 C 
BRANCH   3   7
ATOM      7  C   UNL     1      -2.955   1.781   1.096  1.00  0.00    +0.184 C 
BRANCH   7   8
ATOM      8  O   UNL     1      -1.531   1.816   1.052  1.00  0.00    -0.394 OA
ATOM      9  H   UNL     1      -1.235   0.929   0.756  1.00  0.00    +0.210 HD
ENDBRANCH   7   8
ENDBRANCH   3   7
ENDBRANCH   1   3
BRANCH   1  10
ATOM     10  C   UNL     1      -2.240  -1.288   0.235  1.00  0.00    +0.148 A 
ATOM     11  N   UNL     1      -1.075  -0.678  -0.064  1.00  0.00    -0.194 NA
ATOM     12  C   UNL     1      -2.278  -2.642   0.443  1.00  0.00    +0.103 A 
ATOM     13  C   UNL     1       0.061  -1.409  -0.132  1.00  0.00    +0.227 A 
ATOM     14  C   UNL     1      -1.087  -3.318   0.375  1.00  0.00    +0.065 A 
ATOM     15  S   UNL     1      -3.680  -3.682   0.766  1.00  0.00    +0.059 S 
ATOM     16  N   UNL     1       0.086  -2.735   0.095  1.00  0.00    -0.217 NA
ATOM     17  C   UNL     1      -1.188  -4.775   0.727  1.00  0.00    +0.072 C 
ATOM     18  O   UNL     1      -3.895  -3.571   2.247  1.00  0.00    -0.254 OA
ATOM     19  C   UNL     1      -2.638  -5.167   0.460  1.00  0.00    +0.117 C 
BRANCH  13  20
ATOM     20  N   UNL     1       1.238  -0.771  -0.452  1.00  0.00    -0.341 N 
ATOM     21  C   UNL     1       2.500  -1.481  -0.292  1.00  0.00    +0.120 C 
ATOM     22  C   UNL     1       1.237   0.656  -0.746  1.00  0.00    +0.120 C 
ATOM     23  C   UNL     1       3.619  -0.505   0.059  1.00  0.00    +0.033 C 
ATOM     24  C   UNL     1       2.426   0.987  -1.646  1.00  0.00    +0.033 C 
ATOM     25  C   UNL     1       3.765   0.600  -0.996  1.00  0.00    +0.061 C 
BRANCH  25  26
ATOM     26  C   UNL     1       4.462   1.796  -0.386  1.00  0.00    +0.131 A 
ATOM     27  N   UNL     1       3.751   2.606   0.424  1.00  0.00    -0.240 NA
ATOM     28  N   UNL     1       5.771   1.961  -0.665  1.00  0.00    -0.240 NA
ATOM     29  C   UNL     1       4.412   3.651   0.971  1.00  0.00    +0.135 A 
ATOM     30  C   UNL     1       6.381   3.023  -0.090  1.00  0.00    +0.135 A 
ATOM     31  C   UNL     1       5.742   3.910   0.745  1.00  0.00    +0.077 A 
ATOM     32 Cl   UNL     1       6.549   5.240   1.453  1.00  0.00    -0.081 Cl
ENDBRANCH  25  26
ENDBRANCH  13  20
ENDBRANCH   1  10
TORSDOF 6
