MODEL 1
REMARK VINA RESULT:    -7.786      0.000      0.000
REMARK INTER + INTRA:         -11.175
REMARK INTER:                 -10.290
REMARK INTRA:                  -0.885
REMARK UNBOUND:                -0.885
REMARK SMILES O=[S@@]1CCc2nc(N3CCC(c4ncc(Cl)cn4)CC3)nc(NC3(CO)CCC3)c21
REMARK SMILES IDX 23 1 24 3 28 4 27 5 29 6 25 7 26 8 22 10 21 11 30 12 7 13
REMARK SMILES IDX 5 14 2 15 6 16 4 17 1 18 3 19 8 20 9 21 20 22 10 23 19 24
REMARK SMILES IDX 11 25 12 26 13 27 18 28 14 29 17 30 15 31 16 32
REMARK H PARENT 23 2 26 9
ROOT
ATOM      1  N   UNL     1     -10.520   2.670 -15.399  1.00  0.00    -0.361 N 
ATOM      2  H   UNL     1     -11.116   1.982 -15.861  1.00  0.00    +0.162 HD
ENDROOT
BRANCH   1   3
ATOM      3  C   UNL     1     -10.718   2.685 -13.964  1.00  0.00    +0.062 C 
ATOM      4  C   UNL     1     -12.348   2.230 -12.631  1.00  0.00    +0.005 C 
ATOM      5  C   UNL     1     -11.445   1.370 -13.536  1.00  0.00    +0.031 C 
ATOM      6  C   UNL     1     -12.021   3.428 -13.542  1.00  0.00    +0.031 C 
BRANCH   3   7
ATOM      7  C   UNL     1      -9.434   2.963 -13.173  1.00  0.00    +0.184 C 
BRANCH   7   8
ATOM      8  O   UNL     1      -8.747   1.757 -12.848  1.00  0.00    -0.394 OA
ATOM      9  H   UNL     1      -7.835   2.010 -12.593  1.00  0.00    +0.210 HD
ENDBRANCH   7   8
ENDBRANCH   3   7
ENDBRANCH   1   3
BRANCH   1  10
ATOM     10  C   UNL     1      -9.268   2.699 -16.054  1.00  0.00    +0.148 A 
ATOM     11  N   UNL     1      -8.416   1.666 -15.895  1.00  0.00    -0.194 NA
ATOM     12  C   UNL     1      -8.902   3.789 -16.798  1.00  0.00    +0.103 A 
ATOM     13  C   UNL     1      -7.205   1.703 -16.499  1.00  0.00    +0.227 A 
ATOM     14  C   UNL     1      -7.668   3.753 -17.395  1.00  0.00    +0.065 A 
ATOM     15  S   UNL     1      -9.799   5.294 -17.088  1.00  0.00    +0.059 S 
ATOM     16  N   UNL     1      -6.808   2.734 -17.267  1.00  0.00    -0.217 NA
ATOM     17  C   UNL     1      -7.383   4.928 -18.287  1.00  0.00    +0.072 C 
ATOM     18  O   UNL     1     -10.712   4.970 -18.234  1.00  0.00    -0.254 OA
ATOM     19  C   UNL     1      -8.276   6.057 -17.783  1.00  0.00    +0.117 C 
BRANCH  13  20
ATOM     20  N   UNL     1      -6.344   0.646 -16.314  1.00  0.00    -0.341 N 
ATOM     21  C   UNL     1      -5.422   0.282 -17.383  1.00  0.00    +0.120 C 
ATOM     22  C   UNL     1      -6.494  -0.224 -15.155  1.00  0.00    +0.120 C 
ATOM     23  C   UNL     1      -5.147  -1.218 -17.361  1.00  0.00    +0.033 C 
ATOM     24  C   UNL     1      -5.147  -0.864 -14.825  1.00  0.00    +0.033 C 
ATOM     25  C   UNL     1      -4.592  -1.678 -16.006  1.00  0.00    +0.061 C 
BRANCH  25  26
ATOM     26  C   UNL     1      -4.837  -3.161 -15.833  1.00  0.00    +0.131 A 
ATOM     27  N   UNL     1      -6.042  -3.561 -15.379  1.00  0.00    -0.240 NA
ATOM     28  N   UNL     1      -3.840  -3.999 -16.179  1.00  0.00    -0.240 NA
ATOM     29  C   UNL     1      -6.235  -4.894 -15.260  1.00  0.00    +0.135 A 
ATOM     30  C   UNL     1      -4.088  -5.322 -16.039  1.00  0.00    +0.135 A 
ATOM     31  C   UNL     1      -5.281  -5.830 -15.579  1.00  0.00    +0.077 A 
ATOM     32 Cl   UNL     1      -5.556  -7.509 -15.418  1.00  0.00    -0.081 Cl
ENDBRANCH  25  26
ENDBRANCH  13  20
ENDBRANCH   1  10
TORSDOF 6
ENDMDL
MODEL 2
REMARK VINA RESULT:    -7.632      4.962      8.161
REMARK INTER + INTRA:         -10.970
REMARK INTER:                  -9.693
REMARK INTRA:                  -1.277
REMARK UNBOUND:                -0.885
REMARK SMILES O=[S@@]1CCc2nc(N3CCC(c4ncc(Cl)cn4)CC3)nc(NC3(CO)CCC3)c21
REMARK SMILES IDX 23 1 24 3 28 4 27 5 29 6 25 7 26 8 22 10 21 11 30 12 7 13
REMARK SMILES IDX 5 14 2 15 6 16 4 17 1 18 3 19 8 20 9 21 20 22 10 23 19 24
REMARK SMILES IDX 11 25 12 26 13 27 18 28 14 29 17 30 15 31 16 32
REMARK H PARENT 23 2 26 9
ROOT
ATOM      1  N   UNL     1      -8.174  -0.403 -15.736  1.00  0.00    -0.361 N 
ATOM      2  H   UNL     1      -8.499  -0.262 -16.695  1.00  0.00    +0.162 HD
ENDROOT
BRANCH   1   3
ATOM      3  C   UNL     1      -6.731  -0.493 -15.659  1.00  0.00    +0.062 C 
ATOM      4  C   UNL     1      -5.167  -1.267 -16.922  1.00  0.00    +0.005 C 
ATOM      5  C   UNL     1      -6.119  -0.061 -17.029  1.00  0.00    +0.031 C 
ATOM      6  C   UNL     1      -6.196  -1.921 -15.980  1.00  0.00    +0.031 C 
BRANCH   3   7
ATOM      7  C   UNL     1      -6.136   0.253 -14.458  1.00  0.00    +0.184 C 
BRANCH   7   8
ATOM      8  O   UNL     1      -5.607   1.521 -14.837  1.00  0.00    -0.394 OA
ATOM      9  H   UNL     1      -6.321   1.994 -15.316  1.00  0.00    +0.210 HD
ENDBRANCH   7   8
ENDBRANCH   3   7
ENDBRANCH   1   3
BRANCH   1  10
ATOM     10  C   UNL     1      -8.997   0.345 -14.864  1.00  0.00    +0.148 A 
ATOM     11  N   UNL     1      -9.495  -0.244 -13.758  1.00  0.00    -0.194 NA
ATOM     12  C   UNL     1      -9.329   1.639 -15.168  1.00  0.00    +0.103 A 
ATOM     13  C   UNL     1     -10.306   0.461 -12.936  1.00  0.00    +0.227 A 
ATOM     14  C   UNL     1     -10.141   2.300 -14.282  1.00  0.00    +0.065 A 
ATOM     15  S   UNL     1      -8.877   2.603 -16.589  1.00  0.00    +0.059 S 
ATOM     16  N   UNL     1     -10.637   1.744 -13.169  1.00  0.00    -0.217 NA
ATOM     17  C   UNL     1     -10.367   3.746 -14.620  1.00  0.00    +0.072 C 
ATOM     18  O   UNL     1      -7.524   3.157 -16.250  1.00  0.00    -0.254 OA
ATOM     19  C   UNL     1     -10.133   3.863 -16.123  1.00  0.00    +0.117 C 
BRANCH  13  20
ATOM     20  N   UNL     1     -10.815  -0.161 -11.819  1.00  0.00    -0.341 N 
ATOM     21  C   UNL     1     -10.728  -1.611 -11.708  1.00  0.00    +0.120 C 
ATOM     22  C   UNL     1     -11.613   0.596 -10.863  1.00  0.00    +0.120 C 
ATOM     23  C   UNL     1     -11.913  -2.156 -10.917  1.00  0.00    +0.033 C 
ATOM     24  C   UNL     1     -11.520  -0.067  -9.490  1.00  0.00    +0.033 C 
ATOM     25  C   UNL     1     -12.008  -1.525  -9.521  1.00  0.00    +0.061 C 
BRANCH  25  26
ATOM     26  C   UNL     1     -13.421  -1.658  -8.998  1.00  0.00    +0.131 A 
ATOM     27  N   UNL     1     -14.251  -2.524  -9.613  1.00  0.00    -0.240 NA
ATOM     28  N   UNL     1     -13.755  -0.922  -7.919  1.00  0.00    -0.240 NA
ATOM     29  C   UNL     1     -15.499  -2.636  -9.103  1.00  0.00    +0.135 A 
ATOM     30  C   UNL     1     -15.016  -1.075  -7.452  1.00  0.00    +0.135 A 
ATOM     31  C   UNL     1     -15.939  -1.926  -8.013  1.00  0.00    +0.077 A 
ATOM     32 Cl   UNL     1     -17.523  -2.091  -7.392  1.00  0.00    -0.081 Cl
ENDBRANCH  25  26
ENDBRANCH  13  20
ENDBRANCH   1  10
TORSDOF 6
ENDMDL
MODEL 3
REMARK VINA RESULT:    -7.621      3.475      5.398
REMARK INTER + INTRA:         -10.956
REMARK INTER:                 -10.498
REMARK INTRA:                  -0.458
REMARK UNBOUND:                -0.885
REMARK SMILES O=[S@@]1CCc2nc(N3CCC(c4ncc(Cl)cn4)CC3)nc(NC3(CO)CCC3)c21
REMARK SMILES IDX 23 1 24 3 28 4 27 5 29 6 25 7 26 8 22 10 21 11 30 12 7 13
REMARK SMILES IDX 5 14 2 15 6 16 4 17 1 18 3 19 8 20 9 21 20 22 10 23 19 24
REMARK SMILES IDX 11 25 12 26 13 27 18 28 14 29 17 30 15 31 16 32
REMARK H PARENT 23 2 26 9
ROOT
ATOM      1  N   UNL     1      -9.747   5.031 -16.223  1.00  0.00    -0.361 N 
ATOM      2  H   UNL     1      -9.402   5.722 -15.555  1.00  0.00    +0.162 HD
ENDROOT
BRANCH   1   3
ATOM      3  C   UNL     1      -9.571   5.465 -17.594  1.00  0.00    +0.062 C 
ATOM      4  C   UNL     1     -10.341   7.067 -18.812  1.00  0.00    +0.005 C 
ATOM      5  C   UNL     1      -9.370   7.014 -17.617  1.00  0.00    +0.031 C 
ATOM      6  C   UNL     1     -10.922   5.727 -18.323  1.00  0.00    +0.031 C 
BRANCH   3   7
ATOM      7  C   UNL     1      -8.477   4.693 -18.344  1.00  0.00    +0.184 C 
BRANCH   7   8
ATOM      8  O   UNL     1      -7.176   5.173 -18.013  1.00  0.00    -0.394 OA
ATOM      9  H   UNL     1      -7.071   6.038 -18.462  1.00  0.00    +0.210 HD
ENDBRANCH   7   8
ENDBRANCH   3   7
ENDBRANCH   1   3
BRANCH   1  10
ATOM     10  C   UNL     1      -9.458   3.739 -15.730  1.00  0.00    +0.148 A 
ATOM     11  N   UNL     1      -8.286   3.154 -16.052  1.00  0.00    -0.194 NA
ATOM     12  C   UNL     1     -10.382   3.064 -14.976  1.00  0.00    +0.103 A 
ATOM     13  C   UNL     1      -8.018   1.907 -15.604  1.00  0.00    +0.227 A 
ATOM     14  C   UNL     1     -10.038   1.810 -14.541  1.00  0.00    +0.065 A 
ATOM     15  S   UNL     1     -12.011   3.574 -14.490  1.00  0.00    +0.059 S 
ATOM     16  N   UNL     1      -8.876   1.212 -14.834  1.00  0.00    -0.217 NA
ATOM     17  C   UNL     1     -11.049   1.180 -13.626  1.00  0.00    +0.072 C 
ATOM     18  O   UNL     1     -11.793   4.405 -13.259  1.00  0.00    -0.254 OA
ATOM     19  C   UNL     1     -12.379   1.855 -13.949  1.00  0.00    +0.117 C 
BRANCH  13  20
ATOM     20  N   UNL     1      -6.823   1.321 -15.955  1.00  0.00    -0.341 N 
ATOM     21  C   UNL     1      -5.647   1.549 -15.126  1.00  0.00    +0.120 C 
ATOM     22  C   UNL     1      -6.687   0.658 -17.245  1.00  0.00    +0.120 C 
ATOM     23  C   UNL     1      -4.381   1.523 -15.977  1.00  0.00    +0.033 C 
ATOM     24  C   UNL     1      -5.591  -0.402 -17.155  1.00  0.00    +0.033 C 
ATOM     25  C   UNL     1      -4.237   0.202 -16.746  1.00  0.00    +0.061 C 
BRANCH  25  26
ATOM     26  C   UNL     1      -3.327   0.404 -17.937  1.00  0.00    +0.131 A 
ATOM     27  N   UNL     1      -2.192   1.110 -17.762  1.00  0.00    -0.240 NA
ATOM     28  N   UNL     1      -3.693  -0.168 -19.102  1.00  0.00    -0.240 NA
ATOM     29  C   UNL     1      -1.391   1.250 -18.842  1.00  0.00    +0.135 A 
ATOM     30  C   UNL     1      -2.853   0.004 -20.149  1.00  0.00    +0.135 A 
ATOM     31  C   UNL     1      -1.676   0.712 -20.074  1.00  0.00    +0.077 A 
ATOM     32 Cl   UNL     1      -0.640   0.907 -21.419  1.00  0.00    -0.081 Cl
ENDBRANCH  25  26
ENDBRANCH  13  20
ENDBRANCH   1  10
TORSDOF 6
ENDMDL
MODEL 4
REMARK VINA RESULT:    -7.545      3.977      6.836
REMARK INTER + INTRA:         -10.856
REMARK INTER:                  -9.643
REMARK INTRA:                  -1.213
REMARK UNBOUND:                -0.885
REMARK SMILES O=[S@@]1CCc2nc(N3CCC(c4ncc(Cl)cn4)CC3)nc(NC3(CO)CCC3)c21
REMARK SMILES IDX 23 1 24 3 28 4 27 5 29 6 25 7 26 8 22 10 21 11 30 12 7 13
REMARK SMILES IDX 5 14 2 15 6 16 4 17 1 18 3 19 8 20 9 21 20 22 10 23 19 24
REMARK SMILES IDX 11 25 12 26 13 27 18 28 14 29 17 30 15 31 16 32
REMARK H PARENT 23 2 26 9
ROOT
ATOM      1  N   UNL     1      -7.616   1.957 -17.121  1.00  0.00    -0.361 N 
ATOM      2  H   UNL     1      -7.678   2.378 -18.049  1.00  0.00    +0.162 HD
ENDROOT
BRANCH   1   3
ATOM      3  C   UNL     1      -6.244   1.808 -16.682  1.00  0.00    +0.062 C 
ATOM      4  C   UNL     1      -4.771   0.236 -16.741  1.00  0.00    +0.005 C 
ATOM      5  C   UNL     1      -5.416   1.128 -17.819  1.00  0.00    +0.031 C 
ATOM      6  C   UNL     1      -6.009   0.502 -15.864  1.00  0.00    +0.031 C 
BRANCH   3   7
ATOM      7  C   UNL     1      -5.622   3.112 -16.165  1.00  0.00    +0.184 C 
BRANCH   7   8
ATOM      8  O   UNL     1      -5.335   4.014 -17.230  1.00  0.00    -0.394 OA
ATOM      9  H   UNL     1      -5.761   3.647 -18.034  1.00  0.00    +0.210 HD
ENDBRANCH   7   8
ENDBRANCH   3   7
ENDBRANCH   1   3
BRANCH   1  10
ATOM     10  C   UNL     1      -8.681   2.444 -16.329  1.00  0.00    +0.148 A 
ATOM     11  N   UNL     1      -9.141   1.695 -15.307  1.00  0.00    -0.194 NA
ATOM     12  C   UNL     1      -9.275   3.641 -16.632  1.00  0.00    +0.103 A 
ATOM     13  C   UNL     1     -10.178   2.146 -14.565  1.00  0.00    +0.227 A 
ATOM     14  C   UNL     1     -10.310   4.045 -15.828  1.00  0.00    +0.065 A 
ATOM     15  S   UNL     1      -8.914   4.761 -17.961  1.00  0.00    +0.059 S 
ATOM     16  N   UNL     1     -10.777   3.328 -14.798  1.00  0.00    -0.217 NA
ATOM     17  C   UNL     1     -10.835   5.416 -16.147  1.00  0.00    +0.072 C 
ATOM     18  O   UNL     1      -7.775   5.594 -17.450  1.00  0.00    -0.254 OA
ATOM     19  C   UNL     1     -10.475   5.669 -17.608  1.00  0.00    +0.117 C 
BRANCH  13  20
ATOM     20  N   UNL     1     -10.643   1.361 -13.534  1.00  0.00    -0.341 N 
ATOM     21  C   UNL     1     -11.921   1.683 -12.914  1.00  0.00    +0.120 C 
ATOM     22  C   UNL     1      -9.776   0.355 -12.936  1.00  0.00    +0.120 C 
ATOM     23  C   UNL     1     -11.914   1.285 -11.441  1.00  0.00    +0.033 C 
ATOM     24  C   UNL     1     -10.634  -0.750 -12.323  1.00  0.00    +0.033 C 
ATOM     25  C   UNL     1     -11.596  -0.205 -11.254  1.00  0.00    +0.061 C 
BRANCH  25  26
ATOM     26  C   UNL     1     -11.076  -0.442  -9.853  1.00  0.00    +0.131 A 
ATOM     27  N   UNL     1     -11.486   0.385  -8.871  1.00  0.00    -0.240 NA
ATOM     28  N   UNL     1     -10.256  -1.495  -9.666  1.00  0.00    -0.240 NA
ATOM     29  C   UNL     1     -11.021   0.129  -7.627  1.00  0.00    +0.135 A 
ATOM     30  C   UNL     1      -9.821  -1.704  -8.401  1.00  0.00    +0.135 A 
ATOM     31  C   UNL     1     -10.176  -0.913  -7.333  1.00  0.00    +0.077 A 
ATOM     32 Cl   UNL     1      -9.606  -1.210  -5.749  1.00  0.00    -0.081 Cl
ENDBRANCH  25  26
ENDBRANCH  13  20
ENDBRANCH   1  10
TORSDOF 6
ENDMDL
MODEL 5
REMARK VINA RESULT:    -7.525      2.118      2.597
REMARK INTER + INTRA:         -10.829
REMARK INTER:                  -9.847
REMARK INTRA:                  -0.982
REMARK UNBOUND:                -0.885
REMARK SMILES O=[S@@]1CCc2nc(N3CCC(c4ncc(Cl)cn4)CC3)nc(NC3(CO)CCC3)c21
REMARK SMILES IDX 23 1 24 3 28 4 27 5 29 6 25 7 26 8 22 10 21 11 30 12 7 13
REMARK SMILES IDX 5 14 2 15 6 16 4 17 1 18 3 19 8 20 9 21 20 22 10 23 19 24
REMARK SMILES IDX 11 25 12 26 13 27 18 28 14 29 17 30 15 31 16 32
REMARK H PARENT 23 2 26 9
ROOT
ATOM      1  N   UNL     1     -10.741   3.055 -15.329  1.00  0.00    -0.361 N 
ATOM      2  H   UNL     1     -11.276   2.369 -15.863  1.00  0.00    +0.162 HD
ENDROOT
BRANCH   1   3
ATOM      3  C   UNL     1     -10.740   2.760 -13.911  1.00  0.00    +0.062 C 
ATOM      4  C   UNL     1     -12.104   1.817 -12.535  1.00  0.00    +0.005 C 
ATOM      5  C   UNL     1     -11.236   1.294 -13.695  1.00  0.00    +0.031 C 
ATOM      6  C   UNL     1     -12.053   3.206 -13.200  1.00  0.00    +0.031 C 
BRANCH   3   7
ATOM      7  C   UNL     1      -9.402   3.063 -13.224  1.00  0.00    +0.184 C 
BRANCH   7   8
ATOM      8  O   UNL     1      -8.590   1.897 -13.120  1.00  0.00    -0.394 OA
ATOM      9  H   UNL     1      -9.075   1.264 -12.548  1.00  0.00    +0.210 HD
ENDBRANCH   7   8
ENDBRANCH   3   7
ENDBRANCH   1   3
BRANCH   1  10
ATOM     10  C   UNL     1      -9.611   3.439 -16.086  1.00  0.00    +0.148 A 
ATOM     11  N   UNL     1      -8.591   2.571 -16.238  1.00  0.00    -0.194 NA
ATOM     12  C   UNL     1      -9.530   4.701 -16.615  1.00  0.00    +0.103 A 
ATOM     13  C   UNL     1      -7.496   2.946 -16.939  1.00  0.00    +0.227 A 
ATOM     14  C   UNL     1      -8.400   5.008 -17.328  1.00  0.00    +0.065 A 
ATOM     15  S   UNL     1     -10.688   6.041 -16.486  1.00  0.00    +0.059 S 
ATOM     16  N   UNL     1      -7.378   4.160 -17.507  1.00  0.00    -0.217 NA
ATOM     17  C   UNL     1      -8.432   6.364 -17.974  1.00  0.00    +0.072 C 
ATOM     18  O   UNL     1     -11.686   5.779 -17.576  1.00  0.00    -0.254 OA
ATOM     19  C   UNL     1      -9.417   7.191 -17.154  1.00  0.00    +0.117 C 
BRANCH  13  20
ATOM     20  N   UNL     1      -6.459   2.051 -17.072  1.00  0.00    -0.341 N 
ATOM     21  C   UNL     1      -6.681   0.804 -17.793  1.00  0.00    +0.120 C 
ATOM     22  C   UNL     1      -5.223   2.251 -16.327  1.00  0.00    +0.120 C 
ATOM     23  C   UNL     1      -5.804  -0.305 -17.222  1.00  0.00    +0.033 C 
ATOM     24  C   UNL     1      -4.071   1.575 -17.068  1.00  0.00    +0.033 C 
ATOM     25  C   UNL     1      -4.315   0.068 -17.258  1.00  0.00    +0.061 C 
BRANCH  25  26
ATOM     26  C   UNL     1      -3.559  -0.758 -16.241  1.00  0.00    +0.131 A 
ATOM     27  N   UNL     1      -2.212  -0.720 -16.261  1.00  0.00    -0.240 NA
ATOM     28  N   UNL     1      -4.286  -1.461 -15.348  1.00  0.00    -0.240 NA
ATOM     29  C   UNL     1      -1.569  -1.451 -15.322  1.00  0.00    +0.135 A 
ATOM     30  C   UNL     1      -3.590  -2.173 -14.432  1.00  0.00    +0.135 A 
ATOM     31  C   UNL     1      -2.216  -2.205 -14.373  1.00  0.00    +0.077 A 
ATOM     32 Cl   UNL     1      -1.374  -3.118 -13.199  1.00  0.00    -0.081 Cl
ENDBRANCH  25  26
ENDBRANCH  13  20
ENDBRANCH   1  10
TORSDOF 6
ENDMDL
MODEL 6
REMARK VINA RESULT:    -7.438      4.166      7.048
REMARK INTER + INTRA:         -10.714
REMARK INTER:                  -9.558
REMARK INTRA:                  -1.156
REMARK UNBOUND:                -0.885
REMARK SMILES O=[S@@]1CCc2nc(N3CCC(c4ncc(Cl)cn4)CC3)nc(NC3(CO)CCC3)c21
REMARK SMILES IDX 23 1 24 3 28 4 27 5 29 6 25 7 26 8 22 10 21 11 30 12 7 13
REMARK SMILES IDX 5 14 2 15 6 16 4 17 1 18 3 19 8 20 9 21 20 22 10 23 19 24
REMARK SMILES IDX 11 25 12 26 13 27 18 28 14 29 17 30 15 31 16 32
REMARK H PARENT 23 2 26 9
ROOT
ATOM      1  N   UNL     1      -7.197   0.437 -17.077  1.00  0.00    -0.361 N 
ATOM      2  H   UNL     1      -7.220   0.782 -18.038  1.00  0.00    +0.162 HD
ENDROOT
BRANCH   1   3
ATOM      3  C   UNL     1      -5.861   0.057 -16.667  1.00  0.00    +0.062 C 
ATOM      4  C   UNL     1      -3.943   1.034 -16.575  1.00  0.00    +0.005 C 
ATOM      5  C   UNL     1      -5.255   1.194 -15.784  1.00  0.00    +0.031 C 
ATOM      6  C   UNL     1      -4.777   0.431 -17.722  1.00  0.00    +0.031 C 
BRANCH   3   7
ATOM      7  C   UNL     1      -5.793  -1.330 -16.014  1.00  0.00    +0.184 C 
BRANCH   7   8
ATOM      8  O   UNL     1      -7.023  -2.036 -16.153  1.00  0.00    -0.394 OA
ATOM      9  H   UNL     1      -7.383  -2.158 -15.248  1.00  0.00    +0.210 HD
ENDBRANCH   7   8
ENDBRANCH   3   7
ENDBRANCH   1   3
BRANCH   1  10
ATOM     10  C   UNL     1      -8.109   1.189 -16.302  1.00  0.00    +0.148 A 
ATOM     11  N   UNL     1      -8.719   0.609 -15.249  1.00  0.00    -0.194 NA
ATOM     12  C   UNL     1      -8.410   2.480 -16.651  1.00  0.00    +0.103 A 
ATOM     13  C   UNL     1      -9.613   1.319 -14.523  1.00  0.00    +0.227 A 
ATOM     14  C   UNL     1      -9.312   3.146 -15.861  1.00  0.00    +0.065 A 
ATOM     15  S   UNL     1      -7.813   3.433 -18.025  1.00  0.00    +0.059 S 
ATOM     16  N   UNL     1      -9.921   2.598 -14.801  1.00  0.00    -0.217 NA
ATOM     17  C   UNL     1      -9.505   4.588 -16.233  1.00  0.00    +0.072 C 
ATOM     18  O   UNL     1      -6.505   3.995 -17.551  1.00  0.00    -0.254 OA
ATOM     19  C   UNL     1      -9.114   4.694 -17.704  1.00  0.00    +0.117 C 
BRANCH  13  20
ATOM     20  N   UNL     1     -10.236   0.705 -13.460  1.00  0.00    -0.341 N 
ATOM     21  C   UNL     1     -11.508   1.227 -12.981  1.00  0.00    +0.120 C 
ATOM     22  C   UNL     1      -9.534  -0.319 -12.697  1.00  0.00    +0.120 C 
ATOM     23  C   UNL     1     -11.649   0.992 -11.480  1.00  0.00    +0.033 C 
ATOM     24  C   UNL     1     -10.554  -1.252 -12.047  1.00  0.00    +0.033 C 
ATOM     25  C   UNL     1     -11.520  -0.494 -11.120  1.00  0.00    +0.061 C 
BRANCH  25  26
ATOM     26  C   UNL     1     -11.129  -0.633  -9.666  1.00  0.00    +0.131 A 
ATOM     27  N   UNL     1     -10.404  -1.708  -9.298  1.00  0.00    -0.240 NA
ATOM     28  N   UNL     1     -11.505   0.353  -8.825  1.00  0.00    -0.240 NA
ATOM     29  C   UNL     1     -10.052  -1.787  -7.994  1.00  0.00    +0.135 A 
ATOM     30  C   UNL     1     -11.125   0.222  -7.533  1.00  0.00    +0.135 A 
ATOM     31  C   UNL     1     -10.390  -0.840  -7.058  1.00  0.00    +0.077 A 
ATOM     32 Cl   UNL     1      -9.928  -0.969  -5.418  1.00  0.00    -0.081 Cl
ENDBRANCH  25  26
ENDBRANCH  13  20
ENDBRANCH   1  10
TORSDOF 6
ENDMDL
MODEL 7
REMARK VINA RESULT:    -7.378      4.708      8.942
REMARK INTER + INTRA:         -10.634
REMARK INTER:                  -9.823
REMARK INTRA:                  -0.811
REMARK UNBOUND:                -0.885
REMARK SMILES O=[S@@]1CCc2nc(N3CCC(c4ncc(Cl)cn4)CC3)nc(NC3(CO)CCC3)c21
REMARK SMILES IDX 23 1 24 3 28 4 27 5 29 6 25 7 26 8 22 10 21 11 30 12 7 13
REMARK SMILES IDX 5 14 2 15 6 16 4 17 1 18 3 19 8 20 9 21 20 22 10 23 19 24
REMARK SMILES IDX 11 25 12 26 13 27 18 28 14 29 17 30 15 31 16 32
REMARK H PARENT 23 2 26 9
ROOT
ATOM      1  N   UNL     1      -3.077  -0.377 -19.065  1.00  0.00    -0.361 N 
ATOM      2  H   UNL     1      -3.825  -0.277 -19.753  1.00  0.00    +0.162 HD
ENDROOT
BRANCH   1   3
ATOM      3  C   UNL     1      -1.870   0.316 -19.467  1.00  0.00    +0.062 C 
ATOM      4  C   UNL     1      -0.678   0.415 -21.259  1.00  0.00    +0.005 C 
ATOM      5  C   UNL     1      -2.083   0.926 -20.889  1.00  0.00    +0.031 C 
ATOM      6  C   UNL     1      -0.825  -0.628 -20.135  1.00  0.00    +0.031 C 
BRANCH   3   7
ATOM      7  C   UNL     1      -1.374   1.332 -18.431  1.00  0.00    +0.184 C 
BRANCH   7   8
ATOM      8  O   UNL     1      -1.771   2.659 -18.766  1.00  0.00    -0.394 OA
ATOM      9  H   UNL     1      -1.334   2.879 -19.616  1.00  0.00    +0.210 HD
ENDBRANCH   7   8
ENDBRANCH   3   7
ENDBRANCH   1   3
BRANCH   1  10
ATOM     10  C   UNL     1      -3.644  -0.350 -17.771  1.00  0.00    +0.148 A 
ATOM     11  N   UNL     1      -4.688   0.467 -17.524  1.00  0.00    -0.194 NA
ATOM     12  C   UNL     1      -3.105  -1.106 -16.763  1.00  0.00    +0.103 A 
ATOM     13  C   UNL     1      -5.216   0.516 -16.279  1.00  0.00    +0.227 A 
ATOM     14  C   UNL     1      -3.699  -1.020 -15.531  1.00  0.00    +0.065 A 
ATOM     15  S   UNL     1      -1.695  -2.184 -16.810  1.00  0.00    +0.059 S 
ATOM     16  N   UNL     1      -4.746  -0.228 -15.262  1.00  0.00    -0.217 NA
ATOM     17  C   UNL     1      -3.129  -1.960 -14.508  1.00  0.00    +0.072 C 
ATOM     18  O   UNL     1      -2.236  -3.484 -17.331  1.00  0.00    -0.254 OA
ATOM     19  C   UNL     1      -1.708  -2.267 -14.972  1.00  0.00    +0.117 C 
BRANCH  13  20
ATOM     20  N   UNL     1      -6.272   1.366 -16.043  1.00  0.00    -0.341 N 
ATOM     21  C   UNL     1      -6.040   2.609 -15.319  1.00  0.00    +0.120 C 
ATOM     22  C   UNL     1      -7.634   0.933 -16.329  1.00  0.00    +0.120 C 
ATOM     23  C   UNL     1      -7.278   2.997 -14.516  1.00  0.00    +0.033 C 
ATOM     24  C   UNL     1      -8.507   2.158 -16.600  1.00  0.00    +0.033 C 
ATOM     25  C   UNL     1      -8.519   3.131 -15.409  1.00  0.00    +0.061 C 
BRANCH  25  26
ATOM     26  C   UNL     1      -9.768   2.978 -14.569  1.00  0.00    +0.131 A 
ATOM     27  N   UNL     1     -10.811   3.794 -14.821  1.00  0.00    -0.240 NA
ATOM     28  N   UNL     1      -9.773   2.005 -13.635  1.00  0.00    -0.240 NA
ATOM     29  C   UNL     1     -11.919   3.613 -14.068  1.00  0.00    +0.135 A 
ATOM     30  C   UNL     1     -10.909   1.870 -12.912  1.00  0.00    +0.135 A 
ATOM     31  C   UNL     1     -12.024   2.656 -13.088  1.00  0.00    +0.077 A 
ATOM     32 Cl   UNL     1     -13.440   2.453 -12.154  1.00  0.00    -0.081 Cl
ENDBRANCH  25  26
ENDBRANCH  13  20
ENDBRANCH   1  10
TORSDOF 6
ENDMDL
MODEL 8
REMARK VINA RESULT:    -7.371      4.548      7.567
REMARK INTER + INTRA:         -10.625
REMARK INTER:                  -9.367
REMARK INTRA:                  -1.258
REMARK UNBOUND:                -0.885
REMARK SMILES O=[S@@]1CCc2nc(N3CCC(c4ncc(Cl)cn4)CC3)nc(NC3(CO)CCC3)c21
REMARK SMILES IDX 23 1 24 3 28 4 27 5 29 6 25 7 26 8 22 10 21 11 30 12 7 13
REMARK SMILES IDX 5 14 2 15 6 16 4 17 1 18 3 19 8 20 9 21 20 22 10 23 19 24
REMARK SMILES IDX 11 25 12 26 13 27 18 28 14 29 17 30 15 31 16 32
REMARK H PARENT 23 2 26 9
ROOT
ATOM      1  N   UNL     1      -7.331  -0.689 -16.197  1.00  0.00    -0.361 N 
ATOM      2  H   UNL     1      -7.448  -0.568 -17.205  1.00  0.00    +0.162 HD
ENDROOT
BRANCH   1   3
ATOM      3  C   UNL     1      -5.954  -0.962 -15.839  1.00  0.00    +0.062 C 
ATOM      4  C   UNL     1      -4.398  -2.255 -16.579  1.00  0.00    +0.005 C 
ATOM      5  C   UNL     1      -5.086  -0.994 -17.136  1.00  0.00    +0.031 C 
ATOM      6  C   UNL     1      -5.653  -2.486 -15.716  1.00  0.00    +0.031 C 
BRANCH   3   7
ATOM      7  C   UNL     1      -5.407  -0.023 -14.756  1.00  0.00    +0.184 C 
BRANCH   7   8
ATOM      8  O   UNL     1      -4.539   0.964 -15.308  1.00  0.00    -0.394 OA
ATOM      9  H   UNL     1      -5.076   1.495 -15.933  1.00  0.00    +0.210 HD
ENDBRANCH   7   8
ENDBRANCH   3   7
ENDBRANCH   1   3
BRANCH   1  10
ATOM     10  C   UNL     1      -8.187   0.216 -15.530  1.00  0.00    +0.148 A 
ATOM     11  N   UNL     1      -8.899  -0.209 -14.466  1.00  0.00    -0.194 NA
ATOM     12  C   UNL     1      -8.334   1.498 -15.993  1.00  0.00    +0.103 A 
ATOM     13  C   UNL     1      -9.740   0.647 -13.843  1.00  0.00    +0.227 A 
ATOM     14  C   UNL     1      -9.191   2.316 -15.303  1.00  0.00    +0.065 A 
ATOM     15  S   UNL     1      -7.583   2.266 -17.406  1.00  0.00    +0.059 S 
ATOM     16  N   UNL     1      -9.898   1.924 -14.235  1.00  0.00    -0.217 NA
ATOM     17  C   UNL     1      -9.213   3.735 -15.796  1.00  0.00    +0.072 C 
ATOM     18  O   UNL     1      -6.243   2.727 -16.913  1.00  0.00    -0.254 OA
ATOM     19  C   UNL     1      -8.754   3.677 -17.250  1.00  0.00    +0.117 C 
BRANCH  13  20
ATOM     20  N   UNL     1     -10.468   0.191 -12.768  1.00  0.00    -0.341 N 
ATOM     21  C   UNL     1     -11.651   0.929 -12.343  1.00  0.00    +0.120 C 
ATOM     22  C   UNL     1      -9.949  -0.891 -11.941  1.00  0.00    +0.120 C 
ATOM     23  C   UNL     1     -11.850   0.793 -10.836  1.00  0.00    +0.033 C 
ATOM     24  C   UNL     1     -11.113  -1.620 -11.273  1.00  0.00    +0.033 C 
ATOM     25  C   UNL     1     -11.961  -0.676 -10.405  1.00  0.00    +0.061 C 
BRANCH  25  26
ATOM     26  C   UNL     1     -11.620  -0.802  -8.937  1.00  0.00    +0.131 A 
ATOM     27  N   UNL     1     -11.587  -2.034  -8.391  1.00  0.00    -0.240 NA
ATOM     28  N   UNL     1     -11.334   0.333  -8.266  1.00  0.00    -0.240 NA
ATOM     29  C   UNL     1     -11.255  -2.111  -7.083  1.00  0.00    +0.135 A 
ATOM     30  C   UNL     1     -11.008   0.196  -6.960  1.00  0.00    +0.135 A 
ATOM     31  C   UNL     1     -10.953  -1.016  -6.311  1.00  0.00    +0.077 A 
ATOM     32 Cl   UNL     1     -10.536  -1.147  -4.658  1.00  0.00    -0.081 Cl
ENDBRANCH  25  26
ENDBRANCH  13  20
ENDBRANCH   1  10
TORSDOF 6
ENDMDL
MODEL 9
REMARK VINA RESULT:    -7.359      4.629      9.017
REMARK INTER + INTRA:         -10.609
REMARK INTER:                  -9.395
REMARK INTRA:                  -1.214
REMARK UNBOUND:                -0.885
REMARK SMILES O=[S@@]1CCc2nc(N3CCC(c4ncc(Cl)cn4)CC3)nc(NC3(CO)CCC3)c21
REMARK SMILES IDX 23 1 24 3 28 4 27 5 29 6 25 7 26 8 22 10 21 11 30 12 7 13
REMARK SMILES IDX 5 14 2 15 6 16 4 17 1 18 3 19 8 20 9 21 20 22 10 23 19 24
REMARK SMILES IDX 11 25 12 26 13 27 18 28 14 29 17 30 15 31 16 32
REMARK H PARENT 23 2 26 9
ROOT
ATOM      1  N   UNL     1      -3.595  -0.380 -15.074  1.00  0.00    -0.361 N 
ATOM      2  H   UNL     1      -2.878  -0.517 -14.359  1.00  0.00    +0.162 HD
ENDROOT
BRANCH   1   3
ATOM      3  C   UNL     1      -3.382  -1.229 -16.228  1.00  0.00    +0.062 C 
ATOM      4  C   UNL     1      -3.116  -3.342 -16.556  1.00  0.00    +0.005 C 
ATOM      5  C   UNL     1      -4.315  -2.477 -16.123  1.00  0.00    +0.031 C 
ATOM      6  C   UNL     1      -2.196  -2.221 -16.036  1.00  0.00    +0.031 C 
BRANCH   3   7
ATOM      7  C   UNL     1      -3.498  -0.485 -17.564  1.00  0.00    +0.184 C 
BRANCH   7   8
ATOM      8  O   UNL     1      -4.857  -0.353 -17.974  1.00  0.00    -0.394 OA
ATOM      9  H   UNL     1      -4.885   0.373 -18.633  1.00  0.00    +0.210 HD
ENDBRANCH   7   8
ENDBRANCH   3   7
ENDBRANCH   1   3
BRANCH   1  10
ATOM     10  C   UNL     1      -4.837  -0.164 -14.434  1.00  0.00    +0.148 A 
ATOM     11  N   UNL     1      -5.765   0.607 -15.036  1.00  0.00    -0.194 NA
ATOM     12  C   UNL     1      -5.075  -0.688 -13.191  1.00  0.00    +0.103 A 
ATOM     13  C   UNL     1      -6.944   0.838 -14.414  1.00  0.00    +0.227 A 
ATOM     14  C   UNL     1      -6.296  -0.427 -12.626  1.00  0.00    +0.065 A 
ATOM     15  S   UNL     1      -3.997  -1.654 -12.163  1.00  0.00    +0.059 S 
ATOM     16  N   UNL     1      -7.242   0.322 -13.208  1.00  0.00    -0.217 NA
ATOM     17  C   UNL     1      -6.529  -1.128 -11.318  1.00  0.00    +0.072 C 
ATOM     18  O   UNL     1      -4.171  -3.061 -12.656  1.00  0.00    -0.254 OA
ATOM     19  C   UNL     1      -5.144  -1.410 -10.746  1.00  0.00    +0.117 C 
BRANCH  13  20
ATOM     20  N   UNL     1      -7.874   1.639 -15.038  1.00  0.00    -0.341 N 
ATOM     21  C   UNL     1      -8.445   1.212 -16.309  1.00  0.00    +0.120 C 
ATOM     22  C   UNL     1      -8.126   2.986 -14.542  1.00  0.00    +0.120 C 
ATOM     23  C   UNL     1      -8.788   2.422 -17.172  1.00  0.00    +0.033 C 
ATOM     24  C   UNL     1      -9.540   3.411 -14.933  1.00  0.00    +0.033 C 
ATOM     25  C   UNL     1      -9.751   3.379 -16.456  1.00  0.00    +0.061 C 
BRANCH  25  26
ATOM     26  C   UNL     1      -9.645   4.758 -17.068  1.00  0.00    +0.131 A 
ATOM     27  N   UNL     1     -10.209   5.793 -16.414  1.00  0.00    -0.240 NA
ATOM     28  N   UNL     1      -8.959   4.874 -18.224  1.00  0.00    -0.240 NA
ATOM     29  C   UNL     1     -10.074   7.015 -16.977  1.00  0.00    +0.135 A 
ATOM     30  C   UNL     1      -8.856   6.119 -18.742  1.00  0.00    +0.135 A 
ATOM     31  C   UNL     1      -9.401   7.238 -18.154  1.00  0.00    +0.077 A 
ATOM     32 Cl   UNL     1      -9.247   8.795 -18.840  1.00  0.00    -0.081 Cl
ENDBRANCH  25  26
ENDBRANCH  13  20
ENDBRANCH   1  10
TORSDOF 6
ENDMDL
MODEL 10
REMARK VINA RESULT:    -7.214      5.029      9.276
REMARK INTER + INTRA:         -10.418
REMARK INTER:                  -9.151
REMARK INTRA:                  -1.266
REMARK UNBOUND:                -0.885
REMARK SMILES O=[S@@]1CCc2nc(N3CCC(c4ncc(Cl)cn4)CC3)nc(NC3(CO)CCC3)c21
REMARK SMILES IDX 23 1 24 3 28 4 27 5 29 6 25 7 26 8 22 10 21 11 30 12 7 13
REMARK SMILES IDX 5 14 2 15 6 16 4 17 1 18 3 19 8 20 9 21 20 22 10 23 19 24
REMARK SMILES IDX 11 25 12 26 13 27 18 28 14 29 17 30 15 31 16 32
REMARK H PARENT 23 2 26 9
ROOT
ATOM      1  N   UNL     1      -2.597   0.052 -16.047  1.00  0.00    -0.361 N 
ATOM      2  H   UNL     1      -1.930  -0.142 -15.297  1.00  0.00    +0.162 HD
ENDROOT
BRANCH   1   3
ATOM      3  C   UNL     1      -2.036  -0.217 -17.355  1.00  0.00    +0.062 C 
ATOM      4  C   UNL     1      -2.498   0.368 -19.376  1.00  0.00    +0.005 C 
ATOM      5  C   UNL     1      -1.942   1.122 -18.154  1.00  0.00    +0.031 C 
ATOM      6  C   UNL     1      -3.111  -0.650 -18.396  1.00  0.00    +0.031 C 
BRANCH   3   7
ATOM      7  C   UNL     1      -0.716  -0.997 -17.306  1.00  0.00    +0.184 C 
BRANCH   7   8
ATOM      8  O   UNL     1      -0.890  -2.349 -17.719  1.00  0.00    -0.394 OA
ATOM      9  H   UNL     1      -1.828  -2.579 -17.548  1.00  0.00    +0.210 HD
ENDBRANCH   7   8
ENDBRANCH   3   7
ENDBRANCH   1   3
BRANCH   1  10
ATOM     10  C   UNL     1      -3.888  -0.328 -15.615  1.00  0.00    +0.148 A 
ATOM     11  N   UNL     1      -4.912   0.539 -15.751  1.00  0.00    -0.194 NA
ATOM     12  C   UNL     1      -4.086  -1.544 -15.015  1.00  0.00    +0.103 A 
ATOM     13  C   UNL     1      -6.143   0.189 -15.313  1.00  0.00    +0.227 A 
ATOM     14  C   UNL     1      -5.362  -1.840 -14.611  1.00  0.00    +0.065 A 
ATOM     15  S   UNL     1      -2.901  -2.813 -14.648  1.00  0.00    +0.059 S 
ATOM     16  N   UNL     1      -6.400  -1.004 -14.747  1.00  0.00    -0.217 NA
ATOM     17  C   UNL     1      -5.527  -3.232 -14.069  1.00  0.00    +0.072 C 
ATOM     18  O   UNL     1      -2.784  -3.597 -15.922  1.00  0.00    -0.254 OA
ATOM     19  C   UNL     1      -4.144  -3.654 -13.584  1.00  0.00    +0.117 C 
BRANCH  13  20
ATOM     20  N   UNL     1      -7.173   1.092 -15.448  1.00  0.00    -0.341 N 
ATOM     21  C   UNL     1      -8.298   0.767 -16.314  1.00  0.00    +0.120 C 
ATOM     22  C   UNL     1      -7.040   2.436 -14.900  1.00  0.00    +0.120 C 
ATOM     23  C   UNL     1      -8.879   2.035 -16.932  1.00  0.00    +0.033 C 
ATOM     24  C   UNL     1      -8.428   2.999 -14.602  1.00  0.00    +0.033 C 
ATOM     25  C   UNL     1      -9.312   3.045 -15.860  1.00  0.00    +0.061 C 
BRANCH  25  26
ATOM     26  C   UNL     1      -9.364   4.433 -16.462  1.00  0.00    +0.131 A 
ATOM     27  N   UNL     1      -8.379   4.802 -17.304  1.00  0.00    -0.240 NA
ATOM     28  N   UNL     1     -10.420   5.209 -16.142  1.00  0.00    -0.240 NA
ATOM     29  C   UNL     1      -8.471   6.039 -17.842  1.00  0.00    +0.135 A 
ATOM     30  C   UNL     1     -10.460   6.436 -16.709  1.00  0.00    +0.135 A 
ATOM     31  C   UNL     1      -9.501   6.908 -17.576  1.00  0.00    +0.077 A 
ATOM     32 Cl   UNL     1      -9.588   8.466 -18.273  1.00  0.00    -0.081 Cl
ENDBRANCH  25  26
ENDBRANCH  13  20
ENDBRANCH   1  10
TORSDOF 6
ENDMDL
