REMARK SMILES CNC(=O)c1cc(Oc2ccc(NC(=O)Nc3ccc(Cl)c(C(F)(F)F)c3)cc2)ccn1
REMARK SMILES IDX 9 1 10 2 11 3 12 4 28 5 29 6 8 7 7 8 5 9 6 10 32 11 31 12
REMARK SMILES IDX 30 13 3 14 2 15 4 16 1 17 13 19 14 20 15 21 16 22 17 25
REMARK SMILES IDX 18 26 27 27 19 28 22 29 20 30 21 31 23 32 24 33 25 34 26 35
REMARK H PARENT 2 18 13 23 16 24
ROOT
ATOM      1  C   UNL     1      -2.059   0.396  -2.340  1.00  0.00    +0.127 A 
ATOM      2  C   UNL     1      -1.162  -0.639  -2.587  1.00  0.00    +0.049 A 
ATOM      3  C   UNL     1       0.118  -0.608  -2.021  1.00  0.00    +0.030 A 
ATOM      4  C   UNL     1       0.513   0.467  -1.222  1.00  0.00    +0.043 A 
ATOM      5  C   UNL     1      -0.394   1.513  -0.995  1.00  0.00    +0.030 A 
ATOM      6  C   UNL     1      -1.671   1.486  -1.562  1.00  0.00    +0.049 A 
ENDROOT
BRANCH   1   7
ATOM      7  O   UNL     1      -3.290   0.323  -2.948  1.00  0.00    -0.457 OA
BRANCH   7   8
ATOM      8  C   UNL     1      -4.404   0.514  -2.160  1.00  0.00    +0.131 A 
ATOM      9  C   UNL     1      -5.723   0.238  -0.206  1.00  0.00    +0.131 A 
ATOM     10  C   UNL     1      -4.533  -0.003  -0.875  1.00  0.00    +0.081 A 
ATOM     11  N   UNL     1      -6.771   0.936  -0.736  1.00  0.00    -0.251 NA
ATOM     12  C   UNL     1      -6.611   1.395  -1.995  1.00  0.00    +0.116 A 
ATOM     13  C   UNL     1      -5.461   1.207  -2.741  1.00  0.00    +0.067 A 
BRANCH   9  14
ATOM     14  C   UNL     1      -5.909  -0.275   1.190  1.00  0.00    +0.269 C 
ATOM     15  N   UNL     1      -7.157  -0.027   1.721  1.00  0.00    -0.354 N 
ATOM     16  O   UNL     1      -5.008  -0.850   1.788  1.00  0.00    -0.268 OA
ATOM     17  C   UNL     1      -7.490  -0.331   3.086  1.00  0.00    +0.143 C 
ATOM     18  H   UNL     1      -7.775   0.550   1.155  1.00  0.00    +0.163 HD
ENDBRANCH   9  14
ENDBRANCH   7   8
ENDBRANCH   1   7
BRANCH   4  19
ATOM     19  N   UNL     1       1.775   0.562  -0.600  1.00  0.00    -0.308 N 
ATOM     20  C   UNL     1       2.884  -0.243  -0.817  1.00  0.00    +0.323 C 
ATOM     21  O   UNL     1       2.970  -1.104  -1.682  1.00  0.00    -0.248 OA
ATOM     22  N   UNL     1       3.886   0.071   0.092  1.00  0.00    -0.308 N 
ATOM     23  H   UNL     1       1.937   1.397  -0.057  1.00  0.00    +0.171 HD
ATOM     24  H   UNL     1       3.586   0.591   0.903  1.00  0.00    +0.171 HD
BRANCH  22  25
ATOM     25  C   UNL     1       5.200  -0.437   0.126  1.00  0.00    +0.043 A 
ATOM     26  C   UNL     1       5.766  -1.201  -0.893  1.00  0.00    +0.028 A 
ATOM     27  C   UNL     1       5.981  -0.128   1.248  1.00  0.00    +0.040 A 
ATOM     28  C   UNL     1       7.084  -1.658  -0.787  1.00  0.00    +0.023 A 
ATOM     29  C   UNL     1       7.312  -0.581   1.371  1.00  0.00    +0.076 A 
ATOM     30  C   UNL     1       7.852  -1.352   0.338  1.00  0.00    +0.053 A 
ATOM     31 Cl   UNL     1       9.468  -1.954   0.390  1.00  0.00    -0.084 Cl
BRANCH  29  32
ATOM     32  C   UNL     1       8.114  -0.230   2.594  1.00  0.00    +0.417 C 
ATOM     33  F   UNL     1       7.412   0.529   3.486  1.00  0.00    -0.166 F 
ATOM     34  F   UNL     1       9.231   0.494   2.311  1.00  0.00    -0.166 F 
ATOM     35  F   UNL     1       8.525  -1.320   3.297  1.00  0.00    -0.166 F 
ENDBRANCH  29  32
ENDBRANCH  22  25
ENDBRANCH   4  19
TORSDOF 6
