MODEL 1
REMARK VINA RESULT:   -10.810      0.000      0.000
REMARK INTER + INTRA:         -14.722
REMARK INTER:                 -14.602
REMARK INTRA:                  -0.121
REMARK UNBOUND:                -0.121
REMARK SMILES CNC(=O)c1cc(Oc2ccc(NC(=O)Nc3ccc(Cl)c(C(F)(F)F)c3)cc2)ccn1
REMARK SMILES IDX 9 1 10 2 11 3 12 4 28 5 29 6 8 7 7 8 5 9 6 10 32 11 31 12
REMARK SMILES IDX 30 13 3 14 2 15 4 16 1 17 13 19 14 20 15 21 16 22 17 25
REMARK SMILES IDX 18 26 27 27 19 28 22 29 20 30 21 31 23 32 24 33 25 34 26 35
REMARK H PARENT 2 18 13 23 16 24
ROOT
ATOM      1  C   UNL     1     -40.229 160.828  -0.254  1.00  0.00    +0.127 A 
ATOM      2  C   UNL     1     -38.964 160.840   0.326  1.00  0.00    +0.049 A 
ATOM      3  C   UNL     1     -38.657 159.946   1.358  1.00  0.00    +0.030 A 
ATOM      4  C   UNL     1     -39.619 159.050   1.828  1.00  0.00    +0.043 A 
ATOM      5  C   UNL     1     -40.896 159.059   1.247  1.00  0.00    +0.030 A 
ATOM      6  C   UNL     1     -41.206 159.953   0.219  1.00  0.00    +0.049 A 
ENDROOT
BRANCH   1   7
ATOM      7  O   UNL     1     -40.479 161.749  -1.243  1.00  0.00    -0.457 OA
BRANCH   7   8
ATOM      8  C   UNL     1     -39.641 161.756  -2.337  1.00  0.00    +0.131 A 
ATOM      9  C   UNL     1     -38.489 162.764  -4.151  1.00  0.00    +0.131 A 
ATOM     10  C   UNL     1     -39.319 162.906  -3.050  1.00  0.00    +0.081 A 
ATOM     11  N   UNL     1     -37.985 161.568  -4.580  1.00  0.00    -0.251 NA
ATOM     12  C   UNL     1     -38.347 160.477  -3.874  1.00  0.00    +0.116 A 
ATOM     13  C   UNL     1     -39.167 160.519  -2.761  1.00  0.00    +0.067 A 
BRANCH   9  14
ATOM     14  C   UNL     1     -38.090 163.972  -4.944  1.00  0.00    +0.269 C 
ATOM     15  N   UNL     1     -38.509 163.950  -6.257  1.00  0.00    -0.354 N 
ATOM     16  O   UNL     1     -37.435 164.879  -4.445  1.00  0.00    -0.268 OA
ATOM     17  C   UNL     1     -38.123 164.956  -7.208  1.00  0.00    +0.143 C 
ATOM     18  H   UNL     1     -38.955 163.090  -6.567  1.00  0.00    +0.163 HD
ENDBRANCH   9  14
ENDBRANCH   7   8
ENDBRANCH   1   7
BRANCH   4  19
ATOM     19  N   UNL     1     -39.382 158.106   2.848  1.00  0.00    -0.308 N 
ATOM     20  C   UNL     1     -38.212 157.399   3.087  1.00  0.00    +0.323 C 
ATOM     21  O   UNL     1     -37.151 157.577   2.504  1.00  0.00    -0.248 OA
ATOM     22  N   UNL     1     -38.419 156.458   4.087  1.00  0.00    -0.308 N 
ATOM     23  H   UNL     1     -40.082 158.054   3.573  1.00  0.00    +0.171 HD
ATOM     24  H   UNL     1     -39.385 156.236   4.278  1.00  0.00    +0.171 HD
BRANCH  22  25
ATOM     25  C   UNL     1     -37.455 155.628   4.694  1.00  0.00    +0.043 A 
ATOM     26  C   UNL     1     -37.521 154.236   4.703  1.00  0.00    +0.028 A 
ATOM     27  C   UNL     1     -36.358 156.254   5.301  1.00  0.00    +0.040 A 
ATOM     28  C   UNL     1     -36.515 153.484   5.319  1.00  0.00    +0.023 A 
ATOM     29  C   UNL     1     -35.334 155.510   5.927  1.00  0.00    +0.076 A 
ATOM     30  C   UNL     1     -35.429 154.116   5.928  1.00  0.00    +0.053 A 
ATOM     31 Cl   UNL     1     -34.232 153.115   6.664  1.00  0.00    -0.084 Cl
BRANCH  29  32
ATOM     32  C   UNL     1     -34.176 156.221   6.570  1.00  0.00    +0.417 C 
ATOM     33  F   UNL     1     -34.443 157.534   6.834  1.00  0.00    -0.166 F 
ATOM     34  F   UNL     1     -33.058 156.234   5.794  1.00  0.00    -0.166 F 
ATOM     35  F   UNL     1     -33.813 155.683   7.766  1.00  0.00    -0.166 F 
ENDBRANCH  29  32
ENDBRANCH  22  25
ENDBRANCH   4  19
TORSDOF 6
ENDMDL
MODEL 2
REMARK VINA RESULT:   -10.511      1.825      2.432
REMARK INTER + INTRA:         -14.318
REMARK INTER:                 -13.888
REMARK INTRA:                  -0.430
REMARK UNBOUND:                -0.121
REMARK SMILES CNC(=O)c1cc(Oc2ccc(NC(=O)Nc3ccc(Cl)c(C(F)(F)F)c3)cc2)ccn1
REMARK SMILES IDX 9 1 10 2 11 3 12 4 28 5 29 6 8 7 7 8 5 9 6 10 32 11 31 12
REMARK SMILES IDX 30 13 3 14 2 15 4 16 1 17 13 19 14 20 15 21 16 22 17 25
REMARK SMILES IDX 18 26 27 27 19 28 22 29 20 30 21 31 23 32 24 33 25 34 26 35
REMARK H PARENT 2 18 13 23 16 24
ROOT
ATOM      1  C   UNL     1     -39.593 160.899  -2.113  1.00  0.00    +0.127 A 
ATOM      2  C   UNL     1     -39.934 161.018  -0.769  1.00  0.00    +0.049 A 
ATOM      3  C   UNL     1     -39.487 160.065   0.155  1.00  0.00    +0.030 A 
ATOM      4  C   UNL     1     -38.714 158.980  -0.264  1.00  0.00    +0.043 A 
ATOM      5  C   UNL     1     -38.392 158.862  -1.625  1.00  0.00    +0.030 A 
ATOM      6  C   UNL     1     -38.840 159.810  -2.549  1.00  0.00    +0.049 A 
ENDROOT
BRANCH   1   7
ATOM      7  O   UNL     1     -40.086 161.850  -2.975  1.00  0.00    -0.457 OA
BRANCH   7   8
ATOM      8  C   UNL     1     -39.182 162.527  -3.765  1.00  0.00    +0.131 A 
ATOM      9  C   UNL     1     -37.746 162.795  -5.635  1.00  0.00    +0.131 A 
ATOM     10  C   UNL     1     -38.675 162.021  -4.957  1.00  0.00    +0.081 A 
ATOM     11  N   UNL     1     -37.294 164.008  -5.196  1.00  0.00    -0.251 NA
ATOM     12  C   UNL     1     -37.794 164.445  -4.022  1.00  0.00    +0.116 A 
ATOM     13  C   UNL     1     -38.725 163.746  -3.275  1.00  0.00    +0.067 A 
BRANCH   9  14
ATOM     14  C   UNL     1     -37.183 162.312  -6.937  1.00  0.00    +0.269 C 
ATOM     15  N   UNL     1     -37.974 162.587  -8.032  1.00  0.00    -0.354 N 
ATOM     16  O   UNL     1     -36.114 161.715  -6.992  1.00  0.00    -0.268 OA
ATOM     17  C   UNL     1     -37.668 162.099  -9.349  1.00  0.00    +0.143 C 
ATOM     18  H   UNL     1     -38.884 162.996  -7.831  1.00  0.00    +0.163 HD
ENDBRANCH   9  14
ENDBRANCH   7   8
ENDBRANCH   1   7
BRANCH   4  19
ATOM     19  N   UNL     1     -38.210 157.992   0.606  1.00  0.00    -0.308 N 
ATOM     20  C   UNL     1     -38.051 158.082   1.981  1.00  0.00    +0.323 C 
ATOM     21  O   UNL     1     -38.440 159.011   2.675  1.00  0.00    -0.248 OA
ATOM     22  N   UNL     1     -37.386 156.960   2.458  1.00  0.00    -0.308 N 
ATOM     23  H   UNL     1     -38.099 157.071   0.209  1.00  0.00    +0.171 HD
ATOM     24  H   UNL     1     -36.891 156.422   1.762  1.00  0.00    +0.171 HD
BRANCH  22  25
ATOM     25  C   UNL     1     -37.137 156.620   3.803  1.00  0.00    +0.043 A 
ATOM     26  C   UNL     1     -38.072 156.009   4.637  1.00  0.00    +0.028 A 
ATOM     27  C   UNL     1     -35.862 156.899   4.312  1.00  0.00    +0.040 A 
ATOM     28  C   UNL     1     -37.741 155.693   5.959  1.00  0.00    +0.023 A 
ATOM     29  C   UNL     1     -35.512 156.587   5.644  1.00  0.00    +0.076 A 
ATOM     30  C   UNL     1     -36.471 155.981   6.461  1.00  0.00    +0.053 A 
ATOM     31 Cl   UNL     1     -36.145 155.559   8.101  1.00  0.00    -0.084 Cl
BRANCH  29  32
ATOM     32  C   UNL     1     -34.133 156.907   6.152  1.00  0.00    +0.417 C 
ATOM     33  F   UNL     1     -33.392 157.621   5.254  1.00  0.00    -0.166 F 
ATOM     34  F   UNL     1     -33.393 155.797   6.422  1.00  0.00    -0.166 F 
ATOM     35  F   UNL     1     -34.140 157.656   7.287  1.00  0.00    -0.166 F 
ENDBRANCH  29  32
ENDBRANCH  22  25
ENDBRANCH   4  19
TORSDOF 6
ENDMDL
MODEL 3
REMARK VINA RESULT:   -10.488      2.469      3.267
REMARK INTER + INTRA:         -14.288
REMARK INTER:                 -14.045
REMARK INTRA:                  -0.243
REMARK UNBOUND:                -0.121
REMARK SMILES CNC(=O)c1cc(Oc2ccc(NC(=O)Nc3ccc(Cl)c(C(F)(F)F)c3)cc2)ccn1
REMARK SMILES IDX 9 1 10 2 11 3 12 4 28 5 29 6 8 7 7 8 5 9 6 10 32 11 31 12
REMARK SMILES IDX 30 13 3 14 2 15 4 16 1 17 13 19 14 20 15 21 16 22 17 25
REMARK SMILES IDX 18 26 27 27 19 28 22 29 20 30 21 31 23 32 24 33 25 34 26 35
REMARK H PARENT 2 18 13 23 16 24
ROOT
ATOM      1  C   UNL     1     -39.576 160.895  -2.502  1.00  0.00    +0.127 A 
ATOM      2  C   UNL     1     -39.779 161.196  -1.159  1.00  0.00    +0.049 A 
ATOM      3  C   UNL     1     -39.348 160.306  -0.168  1.00  0.00    +0.030 A 
ATOM      4  C   UNL     1     -38.730 159.103  -0.517  1.00  0.00    +0.043 A 
ATOM      5  C   UNL     1     -38.547 158.803  -1.875  1.00  0.00    +0.030 A 
ATOM      6  C   UNL     1     -38.980 159.688  -2.866  1.00  0.00    +0.049 A 
ENDROOT
BRANCH   1   7
ATOM      7  O   UNL     1     -40.048 161.795  -3.429  1.00  0.00    -0.457 OA
BRANCH   7   8
ATOM      8  C   UNL     1     -39.121 162.486  -4.177  1.00  0.00    +0.131 A 
ATOM      9  C   UNL     1     -37.618 162.784  -5.990  1.00  0.00    +0.131 A 
ATOM     10  C   UNL     1     -38.565 161.996  -5.355  1.00  0.00    +0.081 A 
ATOM     11  N   UNL     1     -37.194 163.996  -5.524  1.00  0.00    -0.251 NA
ATOM     12  C   UNL     1     -37.741 164.418  -4.364  1.00  0.00    +0.116 A 
ATOM     13  C   UNL     1     -38.693 163.705  -3.660  1.00  0.00    +0.067 A 
BRANCH   9  14
ATOM     14  C   UNL     1     -37.002 162.317  -7.274  1.00  0.00    +0.269 C 
ATOM     15  N   UNL     1     -37.750 162.606  -8.396  1.00  0.00    -0.354 N 
ATOM     16  O   UNL     1     -35.932 161.722  -7.294  1.00  0.00    -0.268 OA
ATOM     17  C   UNL     1     -37.390 162.135  -9.706  1.00  0.00    +0.143 C 
ATOM     18  H   UNL     1     -38.667 163.013  -8.228  1.00  0.00    +0.163 HD
ENDBRANCH   9  14
ENDBRANCH   7   8
ENDBRANCH   1   7
BRANCH   4  19
ATOM     19  N   UNL     1     -38.250 158.165   0.421  1.00  0.00    -0.308 N 
ATOM     20  C   UNL     1     -38.141 158.327   1.794  1.00  0.00    +0.323 C 
ATOM     21  O   UNL     1     -38.561 159.288   2.425  1.00  0.00    -0.248 OA
ATOM     22  N   UNL     1     -37.486 157.237   2.352  1.00  0.00    -0.308 N 
ATOM     23  H   UNL     1     -38.119 157.226   0.077  1.00  0.00    +0.171 HD
ATOM     24  H   UNL     1     -36.963 156.669   1.703  1.00  0.00    +0.171 HD
BRANCH  22  25
ATOM     25  C   UNL     1     -37.283 156.970   3.721  1.00  0.00    +0.043 A 
ATOM     26  C   UNL     1     -36.930 157.938   4.660  1.00  0.00    +0.028 A 
ATOM     27  C   UNL     1     -37.474 155.651   4.154  1.00  0.00    +0.040 A 
ATOM     28  C   UNL     1     -36.759 157.591   6.004  1.00  0.00    +0.023 A 
ATOM     29  C   UNL     1     -37.305 155.284   5.507  1.00  0.00    +0.076 A 
ATOM     30  C   UNL     1     -36.943 156.273   6.426  1.00  0.00    +0.053 A 
ATOM     31 Cl   UNL     1     -36.713 155.930   8.101  1.00  0.00    -0.084 Cl
BRANCH  29  32
ATOM     32  C   UNL     1     -37.516 153.856   5.929  1.00  0.00    +0.417 C 
ATOM     33  F   UNL     1     -37.954 153.063   4.908  1.00  0.00    -0.166 F 
ATOM     34  F   UNL     1     -38.448 153.721   6.911  1.00  0.00    -0.166 F 
ATOM     35  F   UNL     1     -36.382 153.259   6.385  1.00  0.00    -0.166 F 
ENDBRANCH  29  32
ENDBRANCH  22  25
ENDBRANCH   4  19
TORSDOF 6
ENDMDL
MODEL 4
REMARK VINA RESULT:   -10.461      6.181     11.691
REMARK INTER + INTRA:         -14.251
REMARK INTER:                 -13.728
REMARK INTRA:                  -0.523
REMARK UNBOUND:                -0.121
REMARK SMILES CNC(=O)c1cc(Oc2ccc(NC(=O)Nc3ccc(Cl)c(C(F)(F)F)c3)cc2)ccn1
REMARK SMILES IDX 9 1 10 2 11 3 12 4 28 5 29 6 8 7 7 8 5 9 6 10 32 11 31 12
REMARK SMILES IDX 30 13 3 14 2 15 4 16 1 17 13 19 14 20 15 21 16 22 17 25
REMARK SMILES IDX 18 26 27 27 19 28 22 29 20 30 21 31 23 32 24 33 25 34 26 35
REMARK H PARENT 2 18 13 23 16 24
ROOT
ATOM      1  C   UNL     1     -39.091 158.060   2.673  1.00  0.00    +0.127 A 
ATOM      2  C   UNL     1     -40.261 158.743   2.355  1.00  0.00    +0.049 A 
ATOM      3  C   UNL     1     -40.433 159.282   1.074  1.00  0.00    +0.030 A 
ATOM      4  C   UNL     1     -39.428 159.156   0.113  1.00  0.00    +0.043 A 
ATOM      5  C   UNL     1     -38.246 158.481   0.451  1.00  0.00    +0.030 A 
ATOM      6  C   UNL     1     -38.070 157.946   1.730  1.00  0.00    +0.049 A 
ENDROOT
BRANCH   1   7
ATOM      7  O   UNL     1     -38.968 157.580   3.955  1.00  0.00    -0.457 OA
BRANCH   7   8
ATOM      8  C   UNL     1     -37.710 157.220   4.385  1.00  0.00    +0.131 A 
ATOM      9  C   UNL     1     -36.057 155.695   5.146  1.00  0.00    +0.131 A 
ATOM     10  C   UNL     1     -37.349 155.912   4.692  1.00  0.00    +0.081 A 
ATOM     11  N   UNL     1     -35.132 156.685   5.320  1.00  0.00    -0.251 NA
ATOM     12  C   UNL     1     -35.535 157.941   5.036  1.00  0.00    +0.116 A 
ATOM     13  C   UNL     1     -36.801 158.256   4.576  1.00  0.00    +0.067 A 
BRANCH   9  14
ATOM     14  C   UNL     1     -35.606 154.303   5.470  1.00  0.00    +0.269 C 
ATOM     15  N   UNL     1     -34.310 154.027   5.088  1.00  0.00    -0.354 N 
ATOM     16  O   UNL     1     -36.350 153.497   6.015  1.00  0.00    -0.268 OA
ATOM     17  C   UNL     1     -33.735 152.714   5.200  1.00  0.00    +0.143 C 
ATOM     18  H   UNL     1     -33.839 154.753   4.552  1.00  0.00    +0.163 HD
ENDBRANCH   9  14
ENDBRANCH   7   8
ENDBRANCH   1   7
BRANCH   4  19
ATOM     19  N   UNL     1     -39.534 159.652  -1.204  1.00  0.00    -0.308 N 
ATOM     20  C   UNL     1     -39.070 160.867  -1.686  1.00  0.00    +0.323 C 
ATOM     21  O   UNL     1     -38.384 161.660  -1.054  1.00  0.00    -0.248 OA
ATOM     22  N   UNL     1     -39.496 161.054  -2.994  1.00  0.00    -0.308 N 
ATOM     23  H   UNL     1     -39.838 158.989  -1.901  1.00  0.00    +0.171 HD
ATOM     24  H   UNL     1     -40.264 160.468  -3.287  1.00  0.00    +0.171 HD
BRANCH  22  25
ATOM     25  C   UNL     1     -39.141 162.101  -3.868  1.00  0.00    +0.043 A 
ATOM     26  C   UNL     1     -39.201 163.452  -3.530  1.00  0.00    +0.028 A 
ATOM     27  C   UNL     1     -38.679 161.747  -5.143  1.00  0.00    +0.040 A 
ATOM     28  C   UNL     1     -38.819 164.431  -4.453  1.00  0.00    +0.023 A 
ATOM     29  C   UNL     1     -38.289 162.722  -6.086  1.00  0.00    +0.076 A 
ATOM     30  C   UNL     1     -38.367 164.070  -5.724  1.00  0.00    +0.053 A 
ATOM     31 Cl   UNL     1     -37.915 165.338  -6.802  1.00  0.00    -0.084 Cl
BRANCH  29  32
ATOM     32  C   UNL     1     -37.803 162.299  -7.445  1.00  0.00    +0.417 C 
ATOM     33  F   UNL     1     -37.932 160.957  -7.658  1.00  0.00    -0.166 F 
ATOM     34  F   UNL     1     -36.484 162.567  -7.648  1.00  0.00    -0.166 F 
ATOM     35  F   UNL     1     -38.481 162.891  -8.466  1.00  0.00    -0.166 F 
ENDBRANCH  29  32
ENDBRANCH  22  25
ENDBRANCH   4  19
TORSDOF 6
ENDMDL
MODEL 5
REMARK VINA RESULT:   -10.413      4.568      7.606
REMARK INTER + INTRA:         -14.187
REMARK INTER:                 -13.862
REMARK INTRA:                  -0.325
REMARK UNBOUND:                -0.121
REMARK SMILES CNC(=O)c1cc(Oc2ccc(NC(=O)Nc3ccc(Cl)c(C(F)(F)F)c3)cc2)ccn1
REMARK SMILES IDX 9 1 10 2 11 3 12 4 28 5 29 6 8 7 7 8 5 9 6 10 32 11 31 12
REMARK SMILES IDX 30 13 3 14 2 15 4 16 1 17 13 19 14 20 15 21 16 22 17 25
REMARK SMILES IDX 18 26 27 27 19 28 22 29 20 30 21 31 23 32 24 33 25 34 26 35
REMARK H PARENT 2 18 13 23 16 24
ROOT
ATOM      1  C   UNL     1     -37.112 162.457  -7.150  1.00  0.00    +0.127 A 
ATOM      2  C   UNL     1     -36.945 163.567  -6.327  1.00  0.00    +0.049 A 
ATOM      3  C   UNL     1     -37.563 163.609  -5.072  1.00  0.00    +0.030 A 
ATOM      4  C   UNL     1     -38.366 162.550  -4.642  1.00  0.00    +0.043 A 
ATOM      5  C   UNL     1     -38.541 161.445  -5.488  1.00  0.00    +0.030 A 
ATOM      6  C   UNL     1     -37.928 161.402  -6.743  1.00  0.00    +0.049 A 
ENDROOT
BRANCH   1   7
ATOM      7  O   UNL     1     -36.504 162.488  -8.383  1.00  0.00    -0.457 OA
BRANCH   7   8
ATOM      8  C   UNL     1     -37.165 163.135  -9.405  1.00  0.00    +0.131 A 
ATOM      9  C   UNL     1     -37.666 164.987 -10.802  1.00  0.00    +0.131 A 
ATOM     10  C   UNL     1     -36.903 164.449  -9.778  1.00  0.00    +0.081 A 
ATOM     11  N   UNL     1     -38.660 164.311 -11.451  1.00  0.00    -0.251 NA
ATOM     12  C   UNL     1     -38.897 163.049 -11.037  1.00  0.00    +0.116 A 
ATOM     13  C   UNL     1     -38.188 162.426 -10.026  1.00  0.00    +0.067 A 
BRANCH   9  14
ATOM     14  C   UNL     1     -37.412 166.391 -11.262  1.00  0.00    +0.269 C 
ATOM     15  N   UNL     1     -36.100 166.796 -11.140  1.00  0.00    -0.354 N 
ATOM     16  O   UNL     1     -38.314 167.099 -11.691  1.00  0.00    -0.268 OA
ATOM     17  C   UNL     1     -35.679 168.143 -11.412  1.00  0.00    +0.143 C 
ATOM     18  H   UNL     1     -35.474 166.144 -10.672  1.00  0.00    +0.163 HD
ENDBRANCH   9  14
ENDBRANCH   7   8
ENDBRANCH   1   7
BRANCH   4  19
ATOM     19  N   UNL     1     -39.004 162.507  -3.386  1.00  0.00    -0.308 N 
ATOM     20  C   UNL     1     -39.348 161.380  -2.653  1.00  0.00    +0.323 C 
ATOM     21  O   UNL     1     -39.040 160.232  -2.943  1.00  0.00    -0.248 OA
ATOM     22  N   UNL     1     -40.094 161.745  -1.540  1.00  0.00    -0.308 N 
ATOM     23  H   UNL     1     -39.077 163.388  -2.898  1.00  0.00    +0.171 HD
ATOM     24  H   UNL     1     -40.499 162.668  -1.575  1.00  0.00    +0.171 HD
BRANCH  22  25
ATOM     25  C   UNL     1     -40.532 160.910  -0.492  1.00  0.00    +0.043 A 
ATOM     26  C   UNL     1     -41.867 160.757  -0.124  1.00  0.00    +0.028 A 
ATOM     27  C   UNL     1     -39.556 160.177   0.197  1.00  0.00    +0.040 A 
ATOM     28  C   UNL     1     -42.220 159.897   0.922  1.00  0.00    +0.023 A 
ATOM     29  C   UNL     1     -39.894 159.305   1.254  1.00  0.00    +0.076 A 
ATOM     30  C   UNL     1     -41.240 159.177   1.608  1.00  0.00    +0.053 A 
ATOM     31 Cl   UNL     1     -41.759 158.139   2.884  1.00  0.00    -0.084 Cl
BRANCH  29  32
ATOM     32  C   UNL     1     -38.815 158.540   1.970  1.00  0.00    +0.417 C 
ATOM     33  F   UNL     1     -37.594 158.665   1.372  1.00  0.00    -0.166 F 
ATOM     34  F   UNL     1     -39.053 157.201   2.020  1.00  0.00    -0.166 F 
ATOM     35  F   UNL     1     -38.629 158.950   3.254  1.00  0.00    -0.166 F 
ENDBRANCH  29  32
ENDBRANCH  22  25
ENDBRANCH   4  19
TORSDOF 6
ENDMDL
MODEL 6
REMARK VINA RESULT:   -10.358      1.925      2.528
REMARK INTER + INTRA:         -14.111
REMARK INTER:                 -14.049
REMARK INTRA:                  -0.062
REMARK UNBOUND:                -0.121
REMARK SMILES CNC(=O)c1cc(Oc2ccc(NC(=O)Nc3ccc(Cl)c(C(F)(F)F)c3)cc2)ccn1
REMARK SMILES IDX 9 1 10 2 11 3 12 4 28 5 29 6 8 7 7 8 5 9 6 10 32 11 31 12
REMARK SMILES IDX 30 13 3 14 2 15 4 16 1 17 13 19 14 20 15 21 16 22 17 25
REMARK SMILES IDX 18 26 27 27 19 28 22 29 20 30 21 31 23 32 24 33 25 34 26 35
REMARK H PARENT 2 18 13 23 16 24
ROOT
ATOM      1  C   UNL     1     -39.610 159.954  -1.518  1.00  0.00    +0.127 A 
ATOM      2  C   UNL     1     -40.562 160.247  -0.547  1.00  0.00    +0.049 A 
ATOM      3  C   UNL     1     -40.517 159.607   0.697  1.00  0.00    +0.030 A 
ATOM      4  C   UNL     1     -39.531 158.656   0.968  1.00  0.00    +0.043 A 
ATOM      5  C   UNL     1     -38.587 158.355  -0.025  1.00  0.00    +0.030 A 
ATOM      6  C   UNL     1     -38.633 158.991  -1.269  1.00  0.00    +0.049 A 
ENDROOT
BRANCH   1   7
ATOM      7  O   UNL     1     -39.725 160.593  -2.729  1.00  0.00    -0.457 OA
BRANCH   7   8
ATOM      8  C   UNL     1     -39.309 161.905  -2.801  1.00  0.00    +0.131 A 
ATOM      9  C   UNL     1     -38.633 163.883  -3.925  1.00  0.00    +0.131 A 
ATOM     10  C   UNL     1     -39.082 162.574  -3.999  1.00  0.00    +0.081 A 
ATOM     11  N   UNL     1     -38.391 164.544  -2.754  1.00  0.00    -0.251 NA
ATOM     12  C   UNL     1     -38.600 163.847  -1.617  1.00  0.00    +0.116 A 
ATOM     13  C   UNL     1     -39.048 162.538  -1.590  1.00  0.00    +0.067 A 
BRANCH   9  14
ATOM     14  C   UNL     1     -38.393 164.660  -5.184  1.00  0.00    +0.269 C 
ATOM     15  N   UNL     1     -38.328 163.885  -6.322  1.00  0.00    -0.354 N 
ATOM     16  O   UNL     1     -38.257 165.877  -5.171  1.00  0.00    -0.268 OA
ATOM     17  C   UNL     1     -37.984 164.427  -7.608  1.00  0.00    +0.143 C 
ATOM     18  H   UNL     1     -38.355 162.878  -6.177  1.00  0.00    +0.163 HD
ENDBRANCH   9  14
ENDBRANCH   7   8
ENDBRANCH   1   7
BRANCH   4  19
ATOM     19  N   UNL     1     -39.405 157.983   2.201  1.00  0.00    -0.308 N 
ATOM     20  C   UNL     1     -38.232 157.627   2.851  1.00  0.00    +0.323 C 
ATOM     21  O   UNL     1     -37.106 157.950   2.498  1.00  0.00    -0.248 OA
ATOM     22  N   UNL     1     -38.522 156.848   3.964  1.00  0.00    -0.308 N 
ATOM     23  H   UNL     1     -40.253 157.891   2.742  1.00  0.00    +0.171 HD
ATOM     24  H   UNL     1     -39.444 156.438   3.977  1.00  0.00    +0.171 HD
BRANCH  22  25
ATOM     25  C   UNL     1     -37.620 156.387   4.944  1.00  0.00    +0.043 A 
ATOM     26  C   UNL     1     -36.922 157.223   5.814  1.00  0.00    +0.028 A 
ATOM     27  C   UNL     1     -37.441 155.002   5.054  1.00  0.00    +0.040 A 
ATOM     28  C   UNL     1     -36.052 156.684   6.768  1.00  0.00    +0.023 A 
ATOM     29  C   UNL     1     -36.568 154.442   6.011  1.00  0.00    +0.076 A 
ATOM     30  C   UNL     1     -35.874 155.303   6.865  1.00  0.00    +0.053 A 
ATOM     31 Cl   UNL     1     -34.784 154.721   8.069  1.00  0.00    -0.084 Cl
BRANCH  29  32
ATOM     32  C   UNL     1     -36.402 152.949   6.092  1.00  0.00    +0.417 C 
ATOM     33  F   UNL     1     -35.106 152.552   5.926  1.00  0.00    -0.166 F 
ATOM     34  F   UNL     1     -37.105 152.280   5.138  1.00  0.00    -0.166 F 
ATOM     35  F   UNL     1     -36.784 152.432   7.291  1.00  0.00    -0.166 F 
ENDBRANCH  29  32
ENDBRANCH  22  25
ENDBRANCH   4  19
TORSDOF 6
ENDMDL
MODEL 7
REMARK VINA RESULT:   -10.330      1.922      2.539
REMARK INTER + INTRA:         -14.074
REMARK INTER:                 -14.156
REMARK INTRA:                   0.081
REMARK UNBOUND:                -0.121
REMARK SMILES CNC(=O)c1cc(Oc2ccc(NC(=O)Nc3ccc(Cl)c(C(F)(F)F)c3)cc2)ccn1
REMARK SMILES IDX 9 1 10 2 11 3 12 4 28 5 29 6 8 7 7 8 5 9 6 10 32 11 31 12
REMARK SMILES IDX 30 13 3 14 2 15 4 16 1 17 13 19 14 20 15 21 16 22 17 25
REMARK SMILES IDX 18 26 27 27 19 28 22 29 20 30 21 31 23 32 24 33 25 34 26 35
REMARK H PARENT 2 18 13 23 16 24
ROOT
ATOM      1  C   UNL     1     -40.192 160.630   0.170  1.00  0.00    +0.127 A 
ATOM      2  C   UNL     1     -41.229 159.859   0.686  1.00  0.00    +0.049 A 
ATOM      3  C   UNL     1     -40.964 158.893   1.665  1.00  0.00    +0.030 A 
ATOM      4  C   UNL     1     -39.660 158.681   2.117  1.00  0.00    +0.043 A 
ATOM      5  C   UNL     1     -38.621 159.453   1.575  1.00  0.00    +0.030 A 
ATOM      6  C   UNL     1     -38.882 160.415   0.596  1.00  0.00    +0.049 A 
ENDROOT
BRANCH   1   7
ATOM      7  O   UNL     1     -40.510 161.541  -0.810  1.00  0.00    -0.457 OA
BRANCH   7   8
ATOM      8  C   UNL     1     -39.734 161.552  -1.948  1.00  0.00    +0.131 A 
ATOM      9  C   UNL     1     -38.657 162.573  -3.800  1.00  0.00    +0.131 A 
ATOM     10  C   UNL     1     -39.420 162.711  -2.651  1.00  0.00    +0.081 A 
ATOM     11  N   UNL     1     -38.211 161.376  -4.284  1.00  0.00    -0.251 NA
ATOM     12  C   UNL     1     -38.563 160.277  -3.584  1.00  0.00    +0.116 A 
ATOM     13  C   UNL     1     -39.319 160.314  -2.426  1.00  0.00    +0.067 A 
BRANCH   9  14
ATOM     14  C   UNL     1     -38.268 163.790  -4.585  1.00  0.00    +0.269 C 
ATOM     15  N   UNL     1     -38.498 163.684  -5.941  1.00  0.00    -0.354 N 
ATOM     16  O   UNL     1     -37.779 164.774  -4.045  1.00  0.00    -0.268 OA
ATOM     17  C   UNL     1     -38.081 164.693  -6.876  1.00  0.00    +0.143 C 
ATOM     18  H   UNL     1     -38.812 162.773  -6.269  1.00  0.00    +0.163 HD
ENDBRANCH   9  14
ENDBRANCH   7   8
ENDBRANCH   1   7
BRANCH   4  19
ATOM     19  N   UNL     1     -39.316 157.745   3.112  1.00  0.00    -0.308 N 
ATOM     20  C   UNL     1     -38.099 157.099   3.277  1.00  0.00    +0.323 C 
ATOM     21  O   UNL     1     -37.084 157.336   2.636  1.00  0.00    -0.248 OA
ATOM     22  N   UNL     1     -38.198 156.142   4.278  1.00  0.00    -0.308 N 
ATOM     23  H   UNL     1     -39.969 157.652   3.875  1.00  0.00    +0.171 HD
ATOM     24  H   UNL     1     -39.138 155.868   4.522  1.00  0.00    +0.171 HD
BRANCH  22  25
ATOM     25  C   UNL     1     -37.159 155.360   4.821  1.00  0.00    +0.043 A 
ATOM     26  C   UNL     1     -35.900 155.859   5.150  1.00  0.00    +0.028 A 
ATOM     27  C   UNL     1     -37.430 154.006   5.061  1.00  0.00    +0.040 A 
ATOM     28  C   UNL     1     -34.925 155.018   5.697  1.00  0.00    +0.023 A 
ATOM     29  C   UNL     1     -36.458 153.143   5.612  1.00  0.00    +0.076 A 
ATOM     30  C   UNL     1     -35.201 153.668   5.925  1.00  0.00    +0.053 A 
ATOM     31 Cl   UNL     1     -33.945 152.699   6.603  1.00  0.00    -0.084 Cl
BRANCH  29  32
ATOM     32  C   UNL     1     -36.788 151.695   5.850  1.00  0.00    +0.417 C 
ATOM     33  F   UNL     1     -38.088 151.395   5.556  1.00  0.00    -0.166 F 
ATOM     34  F   UNL     1     -36.618 151.314   7.145  1.00  0.00    -0.166 F 
ATOM     35  F   UNL     1     -36.044 150.844   5.093  1.00  0.00    -0.166 F 
ENDBRANCH  29  32
ENDBRANCH  22  25
ENDBRANCH   4  19
TORSDOF 6
ENDMDL
MODEL 8
REMARK VINA RESULT:   -10.164      5.620     12.103
REMARK INTER + INTRA:         -13.850
REMARK INTER:                 -13.637
REMARK INTRA:                  -0.213
REMARK UNBOUND:                -0.121
REMARK SMILES CNC(=O)c1cc(Oc2ccc(NC(=O)Nc3ccc(Cl)c(C(F)(F)F)c3)cc2)ccn1
REMARK SMILES IDX 9 1 10 2 11 3 12 4 28 5 29 6 8 7 7 8 5 9 6 10 32 11 31 12
REMARK SMILES IDX 30 13 3 14 2 15 4 16 1 17 13 19 14 20 15 21 16 22 17 25
REMARK SMILES IDX 18 26 27 27 19 28 22 29 20 30 21 31 23 32 24 33 25 34 26 35
REMARK H PARENT 2 18 13 23 16 24
ROOT
ATOM      1  C   UNL     1     -35.765 153.509   6.441  1.00  0.00    +0.127 A 
ATOM      2  C   UNL     1     -35.256 154.714   5.964  1.00  0.00    +0.049 A 
ATOM      3  C   UNL     1     -35.971 155.449   5.011  1.00  0.00    +0.030 A 
ATOM      4  C   UNL     1     -37.188 154.974   4.517  1.00  0.00    +0.043 A 
ATOM      5  C   UNL     1     -37.682 153.750   4.992  1.00  0.00    +0.030 A 
ATOM      6  C   UNL     1     -36.968 153.012   5.941  1.00  0.00    +0.049 A 
ENDROOT
BRANCH   1   7
ATOM      7  O   UNL     1     -35.003 152.819   7.353  1.00  0.00    -0.457 OA
BRANCH   7   8
ATOM      8  C   UNL     1     -35.039 151.442   7.304  1.00  0.00    +0.131 A 
ATOM      9  C   UNL     1     -35.002 149.332   6.219  1.00  0.00    +0.131 A 
ATOM     10  C   UNL     1     -34.913 150.712   6.127  1.00  0.00    +0.081 A 
ATOM     11  N   UNL     1     -35.217 148.655   7.385  1.00  0.00    -0.251 NA
ATOM     12  C   UNL     1     -35.360 149.406   8.497  1.00  0.00    +0.116 A 
ATOM     13  C   UNL     1     -35.286 150.787   8.507  1.00  0.00    +0.067 A 
BRANCH   9  14
ATOM     14  C   UNL     1     -34.850 148.493   4.986  1.00  0.00    +0.269 C 
ATOM     15  N   UNL     1     -34.833 149.214   3.811  1.00  0.00    -0.354 N 
ATOM     16  O   UNL     1     -34.764 147.273   5.046  1.00  0.00    -0.268 OA
ATOM     17  C   UNL     1     -34.818 148.585   2.518  1.00  0.00    +0.143 C 
ATOM     18  H   UNL     1     -35.017 150.211   3.898  1.00  0.00    +0.163 HD
ENDBRANCH   9  14
ENDBRANCH   7   8
ENDBRANCH   1   7
BRANCH   4  19
ATOM     19  N   UNL     1     -37.976 155.665   3.574  1.00  0.00    -0.308 N 
ATOM     20  C   UNL     1     -37.747 156.928   3.047  1.00  0.00    +0.323 C 
ATOM     21  O   UNL     1     -36.743 157.599   3.242  1.00  0.00    -0.248 OA
ATOM     22  N   UNL     1     -38.825 157.320   2.264  1.00  0.00    -0.308 N 
ATOM     23  H   UNL     1     -38.695 155.122   3.119  1.00  0.00    +0.171 HD
ATOM     24  H   UNL     1     -39.678 156.804   2.414  1.00  0.00    +0.171 HD
BRANCH  22  25
ATOM     25  C   UNL     1     -38.926 158.479   1.468  1.00  0.00    +0.043 A 
ATOM     26  C   UNL     1     -39.178 159.752   1.974  1.00  0.00    +0.028 A 
ATOM     27  C   UNL     1     -38.737 158.329   0.087  1.00  0.00    +0.040 A 
ATOM     28  C   UNL     1     -39.252 160.854   1.116  1.00  0.00    +0.023 A 
ATOM     29  C   UNL     1     -38.809 159.430  -0.793  1.00  0.00    +0.076 A 
ATOM     30  C   UNL     1     -39.071 160.695  -0.259  1.00  0.00    +0.053 A 
ATOM     31 Cl   UNL     1     -39.178 162.105  -1.248  1.00  0.00    -0.084 Cl
BRANCH  29  32
ATOM     32  C   UNL     1     -38.604 159.226  -2.269  1.00  0.00    +0.417 C 
ATOM     33  F   UNL     1     -39.557 159.846  -3.026  1.00  0.00    -0.166 F 
ATOM     34  F   UNL     1     -38.651 157.917  -2.639  1.00  0.00    -0.166 F 
ATOM     35  F   UNL     1     -37.416 159.714  -2.719  1.00  0.00    -0.166 F 
ENDBRANCH  29  32
ENDBRANCH  22  25
ENDBRANCH   4  19
TORSDOF 6
ENDMDL
MODEL 9
REMARK VINA RESULT:   -10.065      6.095     11.508
REMARK INTER + INTRA:         -13.716
REMARK INTER:                 -13.598
REMARK INTRA:                  -0.118
REMARK UNBOUND:                -0.121
REMARK SMILES CNC(=O)c1cc(Oc2ccc(NC(=O)Nc3ccc(Cl)c(C(F)(F)F)c3)cc2)ccn1
REMARK SMILES IDX 9 1 10 2 11 3 12 4 28 5 29 6 8 7 7 8 5 9 6 10 32 11 31 12
REMARK SMILES IDX 30 13 3 14 2 15 4 16 1 17 13 19 14 20 15 21 16 22 17 25
REMARK SMILES IDX 18 26 27 27 19 28 22 29 20 30 21 31 23 32 24 33 25 34 26 35
REMARK H PARENT 2 18 13 23 16 24
ROOT
ATOM      1  C   UNL     1     -38.925 157.698   2.855  1.00  0.00    +0.127 A 
ATOM      2  C   UNL     1     -40.202 158.240   2.738  1.00  0.00    +0.049 A 
ATOM      3  C   UNL     1     -40.498 159.116   1.686  1.00  0.00    +0.030 A 
ATOM      4  C   UNL     1     -39.515 159.468   0.760  1.00  0.00    +0.043 A 
ATOM      5  C   UNL     1     -38.227 158.930   0.899  1.00  0.00    +0.030 A 
ATOM      6  C   UNL     1     -37.927 158.058   1.950  1.00  0.00    +0.049 A 
ENDROOT
BRANCH   1   7
ATOM      7  O   UNL     1     -38.687 156.868   3.925  1.00  0.00    -0.457 OA
BRANCH   7   8
ATOM      8  C   UNL     1     -37.454 156.949   4.534  1.00  0.00    +0.131 A 
ATOM      9  C   UNL     1     -35.403 156.078   5.350  1.00  0.00    +0.131 A 
ATOM     10  C   UNL     1     -36.601 155.861   4.687  1.00  0.00    +0.081 A 
ATOM     11  N   UNL     1     -35.022 157.283   5.869  1.00  0.00    -0.251 NA
ATOM     12  C   UNL     1     -35.893 158.302   5.720  1.00  0.00    +0.116 A 
ATOM     13  C   UNL     1     -37.110 158.185   5.073  1.00  0.00    +0.067 A 
BRANCH   9  14
ATOM     14  C   UNL     1     -34.434 154.947   5.524  1.00  0.00    +0.269 C 
ATOM     15  N   UNL     1     -34.956 153.706   5.229  1.00  0.00    -0.354 N 
ATOM     16  O   UNL     1     -33.287 155.138   5.909  1.00  0.00    -0.268 OA
ATOM     17  C   UNL     1     -34.224 152.488   5.449  1.00  0.00    +0.143 C 
ATOM     18  H   UNL     1     -35.951 153.680   5.020  1.00  0.00    +0.163 HD
ENDBRANCH   9  14
ENDBRANCH   7   8
ENDBRANCH   1   7
BRANCH   4  19
ATOM     19  N   UNL     1     -39.740 160.326  -0.337  1.00  0.00    -0.308 N 
ATOM     20  C   UNL     1     -39.068 160.335  -1.551  1.00  0.00    +0.323 C 
ATOM     21  O   UNL     1     -38.238 159.507  -1.902  1.00  0.00    -0.248 OA
ATOM     22  N   UNL     1     -39.476 161.422  -2.313  1.00  0.00    -0.308 N 
ATOM     23  H   UNL     1     -40.578 160.887  -0.293  1.00  0.00    +0.171 HD
ATOM     24  H   UNL     1     -39.945 162.156  -1.803  1.00  0.00    +0.171 HD
BRANCH  22  25
ATOM     25  C   UNL     1     -39.119 161.716  -3.644  1.00  0.00    +0.043 A 
ATOM     26  C   UNL     1     -39.002 160.757  -4.649  1.00  0.00    +0.028 A 
ATOM     27  C   UNL     1     -38.891 163.060  -3.968  1.00  0.00    +0.040 A 
ATOM     28  C   UNL     1     -38.654 161.134  -5.950  1.00  0.00    +0.023 A 
ATOM     29  C   UNL     1     -38.538 163.458  -5.275  1.00  0.00    +0.076 A 
ATOM     30  C   UNL     1     -38.421 162.475  -6.262  1.00  0.00    +0.053 A 
ATOM     31 Cl   UNL     1     -37.996 162.855  -7.890  1.00  0.00    -0.084 Cl
BRANCH  29  32
ATOM     32  C   UNL     1     -38.299 164.911  -5.579  1.00  0.00    +0.417 C 
ATOM     33  F   UNL     1     -38.640 165.731  -4.541  1.00  0.00    -0.166 F 
ATOM     34  F   UNL     1     -39.021 165.361  -6.641  1.00  0.00    -0.166 F 
ATOM     35  F   UNL     1     -36.996 165.196  -5.847  1.00  0.00    -0.166 F 
ENDBRANCH  29  32
ENDBRANCH  22  25
ENDBRANCH   4  19
TORSDOF 6
ENDMDL
MODEL 10
REMARK VINA RESULT:    -9.979      5.522     11.682
REMARK INTER + INTRA:         -13.599
REMARK INTER:                 -12.827
REMARK INTRA:                  -0.772
REMARK UNBOUND:                -0.121
REMARK SMILES CNC(=O)c1cc(Oc2ccc(NC(=O)Nc3ccc(Cl)c(C(F)(F)F)c3)cc2)ccn1
REMARK SMILES IDX 9 1 10 2 11 3 12 4 28 5 29 6 8 7 7 8 5 9 6 10 32 11 31 12
REMARK SMILES IDX 30 13 3 14 2 15 4 16 1 17 13 19 14 20 15 21 16 22 17 25
REMARK SMILES IDX 18 26 27 27 19 28 22 29 20 30 21 31 23 32 24 33 25 34 26 35
REMARK H PARENT 2 18 13 23 16 24
ROOT
ATOM      1  C   UNL     1     -36.850 156.561   5.727  1.00  0.00    +0.127 A 
ATOM      2  C   UNL     1     -37.655 155.874   4.822  1.00  0.00    +0.049 A 
ATOM      3  C   UNL     1     -38.269 156.561   3.768  1.00  0.00    +0.030 A 
ATOM      4  C   UNL     1     -38.097 157.939   3.625  1.00  0.00    +0.043 A 
ATOM      5  C   UNL     1     -37.298 158.623   4.554  1.00  0.00    +0.030 A 
ATOM      6  C   UNL     1     -36.687 157.940   5.609  1.00  0.00    +0.049 A 
ENDROOT
BRANCH   1   7
ATOM      7  O   UNL     1     -36.299 155.836   6.757  1.00  0.00    -0.457 OA
BRANCH   7   8
ATOM      8  C   UNL     1     -35.505 154.760   6.428  1.00  0.00    +0.131 A 
ATOM      9  C   UNL     1     -34.998 152.450   6.225  1.00  0.00    +0.131 A 
ATOM     10  C   UNL     1     -35.912 153.436   6.562  1.00  0.00    +0.081 A 
ATOM     11  N   UNL     1     -33.729 152.700   5.785  1.00  0.00    -0.251 NA
ATOM     12  C   UNL     1     -33.369 153.998   5.697  1.00  0.00    +0.116 A 
ATOM     13  C   UNL     1     -34.211 155.051   6.008  1.00  0.00    +0.067 A 
BRANCH   9  14
ATOM     14  C   UNL     1     -35.389 151.007   6.327  1.00  0.00    +0.269 C 
ATOM     15  N   UNL     1     -34.326 150.130   6.297  1.00  0.00    -0.354 N 
ATOM     16  O   UNL     1     -36.562 150.664   6.416  1.00  0.00    -0.268 OA
ATOM     17  C   UNL     1     -34.501 148.703   6.260  1.00  0.00    +0.143 C 
ATOM     18  H   UNL     1     -33.414 150.542   6.116  1.00  0.00    +0.163 HD
ENDBRANCH   9  14
ENDBRANCH   7   8
ENDBRANCH   1   7
BRANCH   4  19
ATOM     19  N   UNL     1     -38.663 158.698   2.581  1.00  0.00    -0.308 N 
ATOM     20  C   UNL     1     -38.319 158.671   1.237  1.00  0.00    +0.323 C 
ATOM     21  O   UNL     1     -37.531 157.885   0.728  1.00  0.00    -0.248 OA
ATOM     22  N   UNL     1     -38.999 159.668   0.550  1.00  0.00    -0.308 N 
ATOM     23  H   UNL     1     -39.511 159.197   2.808  1.00  0.00    +0.171 HD
ATOM     24  H   UNL     1     -39.390 160.400   1.126  1.00  0.00    +0.171 HD
BRANCH  22  25
ATOM     25  C   UNL     1     -39.012 159.894  -0.841  1.00  0.00    +0.043 A 
ATOM     26  C   UNL     1     -39.066 158.878  -1.793  1.00  0.00    +0.028 A 
ATOM     27  C   UNL     1     -38.992 161.225  -1.278  1.00  0.00    +0.040 A 
ATOM     28  C   UNL     1     -39.087 159.187  -3.158  1.00  0.00    +0.023 A 
ATOM     29  C   UNL     1     -39.012 161.554  -2.650  1.00  0.00    +0.076 A 
ATOM     30  C   UNL     1     -39.058 160.516  -3.584  1.00  0.00    +0.053 A 
ATOM     31 Cl   UNL     1     -39.087 160.810  -5.284  1.00  0.00    -0.084 Cl
BRANCH  29  32
ATOM     32  C   UNL     1     -38.985 162.996  -3.076  1.00  0.00    +0.417 C 
ATOM     33  F   UNL     1     -38.843 163.855  -2.024  1.00  0.00    -0.166 F 
ATOM     34  F   UNL     1     -40.126 163.389  -3.706  1.00  0.00    -0.166 F 
ATOM     35  F   UNL     1     -37.956 163.288  -3.918  1.00  0.00    -0.166 F 
ENDBRANCH  29  32
ENDBRANCH  22  25
ENDBRANCH   4  19
TORSDOF 6
ENDMDL
