MODEL 1
REMARK VINA RESULT:   -10.430      0.000      0.000
REMARK INTER + INTRA:         -14.759
REMARK INTER:                 -13.784
REMARK INTRA:                  -0.975
REMARK UNBOUND:                -0.975
REMARK SMILES CC1(COc2ccc3c(c2)ncn3-c2ccc3cccc(N4CCC(N)CC4)c3n2)COC1
REMARK SMILES IDX 5 1 6 2 7 3 8 4 9 5 10 6 11 7 12 8 13 9 4 10 3 11 2 12 31 13
REMARK SMILES IDX 33 14 32 15 1 16 14 17 15 18 30 19 16 20 29 21 17 22 21 23
REMARK SMILES IDX 18 24 20 25 19 26 22 27 23 28 28 29 24 30 27 31 25 32 26 33
REMARK H PARENT 26 34 26 35
ROOT
ATOM      1  C   UNL     1     -12.402   1.090 -11.288  1.00  0.00    +0.121 A 
ATOM      2  C   UNL     1     -11.219   1.096 -12.027  1.00  0.00    +0.049 A 
ATOM      3  C   UNL     1     -11.016   1.977 -13.098  1.00  0.00    +0.033 A 
ATOM      4  C   UNL     1     -12.043   2.886 -13.402  1.00  0.00    +0.075 A 
ATOM      5  C   UNL     1     -13.251   2.858 -12.701  1.00  0.00    +0.093 A 
ATOM      6  C   UNL     1     -13.432   1.969 -11.626  1.00  0.00    +0.077 A 
ATOM      7  N   UNL     1     -14.155   3.747 -13.215  1.00  0.00    -0.236 NA
ATOM      8  C   UNL     1     -13.526   4.318 -14.215  1.00  0.00    +0.206 A 
ATOM      9  N   UNL     1     -12.222   3.888 -14.352  1.00  0.00    -0.283 N 
ENDROOT
BRANCH   1  10
ATOM     10  O   UNL     1     -12.434   0.170 -10.276  1.00  0.00    -0.493 OA
BRANCH  10  11
ATOM     11  C   UNL     1     -11.487  -0.900 -10.336  1.00  0.00    +0.241 C 
BRANCH  11  12
ATOM     12  C   UNL     1     -12.229  -2.214 -10.091  1.00  0.00    +0.048 C 
ATOM     13  C   UNL     1     -11.487  -3.145  -9.114  1.00  0.00    +0.172 C 
ATOM     14  C   UNL     1     -11.913  -3.307 -11.126  1.00  0.00    +0.172 C 
ATOM     15  O   UNL     1     -11.003  -3.963 -10.207  1.00  0.00    -0.380 OA
ATOM     16  C   UNL     1     -13.706  -2.026  -9.771  1.00  0.00    +0.020 C 
ENDBRANCH  11  12
ENDBRANCH  10  11
ENDBRANCH   1  10
BRANCH   9  17
ATOM     17  C   UNL     1     -11.325   4.438 -15.314  1.00  0.00    +0.139 A 
ATOM     18  C   UNL     1     -11.595   5.632 -15.955  1.00  0.00    +0.048 A 
ATOM     19  N   UNL     1     -10.214   3.706 -15.595  1.00  0.00    -0.228 NA
ATOM     20  C   UNL     1     -10.676   6.106 -16.885  1.00  0.00    +0.014 A 
ATOM     21  C   UNL     1      -9.299   4.158 -16.491  1.00  0.00    +0.096 A 
ATOM     22  C   UNL     1      -9.512   5.382 -17.163  1.00  0.00    +0.002 A 
ATOM     23  C   UNL     1      -8.112   3.442 -16.791  1.00  0.00    +0.063 A 
ATOM     24  C   UNL     1      -8.586   5.867 -18.101  1.00  0.00    +0.010 A 
ATOM     25  C   UNL     1      -7.198   3.948 -17.734  1.00  0.00    +0.028 A 
ATOM     26  C   UNL     1      -7.431   5.151 -18.387  1.00  0.00    +0.003 A 
BRANCH  23  27
ATOM     27  N   UNL     1      -7.740   2.197 -16.200  1.00  0.00    -0.370 N 
ATOM     28  C   UNL     1      -6.289   1.959 -16.280  1.00  0.00    +0.118 C 
ATOM     29  C   UNL     1      -8.541   1.070 -16.706  1.00  0.00    +0.118 C 
ATOM     30  C   UNL     1      -5.943   0.759 -15.398  1.00  0.00    +0.040 C 
ATOM     31  C   UNL     1      -8.258  -0.157 -15.838  1.00  0.00    +0.040 C 
ATOM     32  C   UNL     1      -6.760  -0.489 -15.756  1.00  0.00    +0.054 C 
BRANCH  32  33
ATOM     33  N   UNL     1      -6.264  -1.104 -16.992  1.00  0.00    -0.328 NA
ATOM     34  H   UNL     1      -5.360  -0.714 -17.251  1.00  0.00    +0.119 HD
ATOM     35  H   UNL     1      -6.894  -0.884 -17.763  1.00  0.00    +0.119 HD
ENDBRANCH  32  33
ENDBRANCH  23  27
ENDBRANCH   9  17
TORSDOF 6
ENDMDL
MODEL 2
REMARK VINA RESULT:   -10.379      1.376      2.001
REMARK INTER + INTRA:         -14.691
REMARK INTER:                 -13.719
REMARK INTRA:                  -0.972
REMARK UNBOUND:                -0.975
REMARK SMILES CC1(COc2ccc3c(c2)ncn3-c2ccc3cccc(N4CCC(N)CC4)c3n2)COC1
REMARK SMILES IDX 5 1 6 2 7 3 8 4 9 5 10 6 11 7 12 8 13 9 4 10 3 11 2 12 31 13
REMARK SMILES IDX 33 14 32 15 1 16 14 17 15 18 30 19 16 20 29 21 17 22 21 23
REMARK SMILES IDX 18 24 20 25 19 26 22 27 23 28 28 29 24 30 27 31 25 32 26 33
REMARK H PARENT 26 34 26 35
ROOT
ATOM      1  C   UNL     1     -12.416   1.082 -11.269  1.00  0.00    +0.121 A 
ATOM      2  C   UNL     1     -11.212   1.091 -11.973  1.00  0.00    +0.049 A 
ATOM      3  C   UNL     1     -10.985   1.965 -13.045  1.00  0.00    +0.033 A 
ATOM      4  C   UNL     1     -12.009   2.863 -13.387  1.00  0.00    +0.075 A 
ATOM      5  C   UNL     1     -13.238   2.831 -12.722  1.00  0.00    +0.093 A 
ATOM      6  C   UNL     1     -13.443   1.949 -11.645  1.00  0.00    +0.077 A 
ATOM      7  N   UNL     1     -14.132   3.709 -13.270  1.00  0.00    -0.236 NA
ATOM      8  C   UNL     1     -13.478   4.277 -14.255  1.00  0.00    +0.206 A 
ATOM      9  N   UNL     1     -12.168   3.857 -14.350  1.00  0.00    -0.283 N 
ENDROOT
BRANCH   1  10
ATOM     10  O   UNL     1     -12.472   0.169 -10.251  1.00  0.00    -0.493 OA
BRANCH  10  11
ATOM     11  C   UNL     1     -13.767  -0.290  -9.857  1.00  0.00    +0.241 C 
BRANCH  11  12
ATOM     12  C   UNL     1     -13.956   0.019  -8.372  1.00  0.00    +0.048 C 
ATOM     13  C   UNL     1     -14.944  -0.942  -7.684  1.00  0.00    +0.172 C 
ATOM     14  C   UNL     1     -15.036   1.078  -8.092  1.00  0.00    +0.172 C 
ATOM     15  O   UNL     1     -15.994   0.054  -7.723  1.00  0.00    -0.380 OA
ATOM     16  C   UNL     1     -12.645   0.209  -7.620  1.00  0.00    +0.020 C 
ENDBRANCH  11  12
ENDBRANCH  10  11
ENDBRANCH   1  10
BRANCH   9  17
ATOM     17  C   UNL     1     -11.247   4.405 -15.290  1.00  0.00    +0.139 A 
ATOM     18  C   UNL     1     -11.496   5.605 -15.928  1.00  0.00    +0.048 A 
ATOM     19  N   UNL     1     -10.135   3.667 -15.551  1.00  0.00    -0.228 NA
ATOM     20  C   UNL     1     -10.554   6.078 -16.836  1.00  0.00    +0.014 A 
ATOM     21  C   UNL     1      -9.199   4.119 -16.425  1.00  0.00    +0.096 A 
ATOM     22  C   UNL     1      -9.389   5.347 -17.094  1.00  0.00    +0.002 A 
ATOM     23  C   UNL     1      -8.011   3.396 -16.704  1.00  0.00    +0.063 A 
ATOM     24  C   UNL     1      -8.440   5.832 -18.009  1.00  0.00    +0.010 A 
ATOM     25  C   UNL     1      -7.074   3.901 -17.626  1.00  0.00    +0.028 A 
ATOM     26  C   UNL     1      -7.284   5.110 -18.276  1.00  0.00    +0.003 A 
BRANCH  23  27
ATOM     27  N   UNL     1      -7.660   2.145 -16.114  1.00  0.00    -0.370 N 
ATOM     28  C   UNL     1      -6.208   1.904 -16.152  1.00  0.00    +0.118 C 
ATOM     29  C   UNL     1      -8.448   1.025 -16.653  1.00  0.00    +0.118 C 
ATOM     30  C   UNL     1      -5.892   0.695 -15.271  1.00  0.00    +0.040 C 
ATOM     31  C   UNL     1      -8.194  -0.211 -15.787  1.00  0.00    +0.040 C 
ATOM     32  C   UNL     1      -6.701  -0.548 -15.664  1.00  0.00    +0.054 C 
BRANCH  32  33
ATOM     33  N   UNL     1      -6.170  -1.154 -16.890  1.00  0.00    -0.328 NA
ATOM     34  H   UNL     1      -5.174  -0.961 -16.985  1.00  0.00    +0.119 HD
ATOM     35  H   UNL     1      -6.614  -0.730 -17.704  1.00  0.00    +0.119 HD
ENDBRANCH  32  33
ENDBRANCH  23  27
ENDBRANCH   9  17
TORSDOF 6
ENDMDL
MODEL 3
REMARK VINA RESULT:   -10.327      1.193      1.471
REMARK INTER + INTRA:         -14.623
REMARK INTER:                 -13.780
REMARK INTRA:                  -0.844
REMARK UNBOUND:                -0.975
REMARK SMILES CC1(COc2ccc3c(c2)ncn3-c2ccc3cccc(N4CCC(N)CC4)c3n2)COC1
REMARK SMILES IDX 5 1 6 2 7 3 8 4 9 5 10 6 11 7 12 8 13 9 4 10 3 11 2 12 31 13
REMARK SMILES IDX 33 14 32 15 1 16 14 17 15 18 30 19 16 20 29 21 17 22 21 23
REMARK SMILES IDX 18 24 20 25 19 26 22 27 23 28 28 29 24 30 27 31 25 32 26 33
REMARK H PARENT 26 34 26 35
ROOT
ATOM      1  C   UNL     1     -12.607   1.162 -11.222  1.00  0.00    +0.121 A 
ATOM      2  C   UNL     1     -11.381   1.132 -11.887  1.00  0.00    +0.049 A 
ATOM      3  C   UNL     1     -11.101   1.982 -12.967  1.00  0.00    +0.033 A 
ATOM      4  C   UNL     1     -12.094   2.894 -13.357  1.00  0.00    +0.075 A 
ATOM      5  C   UNL     1     -13.344   2.901 -12.731  1.00  0.00    +0.093 A 
ATOM      6  C   UNL     1     -13.602   2.044 -11.645  1.00  0.00    +0.077 A 
ATOM      7  N   UNL     1     -14.201   3.787 -13.322  1.00  0.00    -0.236 NA
ATOM      8  C   UNL     1     -13.504   4.323 -14.296  1.00  0.00    +0.206 A 
ATOM      9  N   UNL     1     -12.201   3.873 -14.342  1.00  0.00    -0.283 N 
ENDROOT
BRANCH   1  10
ATOM     10  O   UNL     1     -12.714   0.270 -10.190  1.00  0.00    -0.493 OA
BRANCH  10  11
ATOM     11  C   UNL     1     -14.032  -0.036  -9.726  1.00  0.00    +0.241 C 
BRANCH  11  12
ATOM     12  C   UNL     1     -13.965  -1.321  -8.900  1.00  0.00    +0.048 C 
ATOM     13  C   UNL     1     -14.111  -2.590  -9.759  1.00  0.00    +0.172 C 
ATOM     14  C   UNL     1     -15.320  -1.752  -8.314  1.00  0.00    +0.172 C 
ATOM     15  O   UNL     1     -15.491  -2.750  -9.352  1.00  0.00    -0.380 OA
ATOM     16  C   UNL     1     -12.792  -1.357  -7.929  1.00  0.00    +0.020 C 
ENDBRANCH  11  12
ENDBRANCH  10  11
ENDBRANCH   1  10
BRANCH   9  17
ATOM     17  C   UNL     1     -11.239   4.385 -15.262  1.00  0.00    +0.139 A 
ATOM     18  C   UNL     1     -11.440   5.580 -15.926  1.00  0.00    +0.048 A 
ATOM     19  N   UNL     1     -10.138   3.617 -15.478  1.00  0.00    -0.228 NA
ATOM     20  C   UNL     1     -10.460   6.016 -16.812  1.00  0.00    +0.014 A 
ATOM     21  C   UNL     1      -9.166   4.032 -16.330  1.00  0.00    +0.096 A 
ATOM     22  C   UNL     1      -9.306   5.254 -17.023  1.00  0.00    +0.002 A 
ATOM     23  C   UNL     1      -7.988   3.276 -16.562  1.00  0.00    +0.063 A 
ATOM     24  C   UNL     1      -8.319   5.701 -17.916  1.00  0.00    +0.010 A 
ATOM     25  C   UNL     1      -7.012   3.744 -17.462  1.00  0.00    +0.028 A 
ATOM     26  C   UNL     1      -7.173   4.947 -18.136  1.00  0.00    +0.003 A 
BRANCH  23  27
ATOM     27  N   UNL     1      -7.685   2.027 -15.941  1.00  0.00    -0.370 N 
ATOM     28  C   UNL     1      -6.239   1.752 -15.931  1.00  0.00    +0.118 C 
ATOM     29  C   UNL     1      -8.482   0.917 -16.487  1.00  0.00    +0.118 C 
ATOM     30  C   UNL     1      -5.978   0.550 -15.023  1.00  0.00    +0.040 C 
ATOM     31  C   UNL     1      -8.285  -0.310 -15.596  1.00  0.00    +0.040 C 
ATOM     32  C   UNL     1      -6.805  -0.680 -15.421  1.00  0.00    +0.054 C 
BRANCH  32  33
ATOM     33  N   UNL     1      -6.251  -1.317 -16.621  1.00  0.00    -0.328 NA
ATOM     34  H   UNL     1      -5.648  -2.099 -16.368  1.00  0.00    +0.119 HD
ATOM     35  H   UNL     1      -5.655  -0.656 -17.118  1.00  0.00    +0.119 HD
ENDBRANCH  32  33
ENDBRANCH  23  27
ENDBRANCH   9  17
TORSDOF 6
ENDMDL
MODEL 4
REMARK VINA RESULT:    -9.695      3.328      7.898
REMARK INTER + INTRA:         -13.787
REMARK INTER:                 -12.965
REMARK INTRA:                  -0.822
REMARK UNBOUND:                -0.975
REMARK SMILES CC1(COc2ccc3c(c2)ncn3-c2ccc3cccc(N4CCC(N)CC4)c3n2)COC1
REMARK SMILES IDX 5 1 6 2 7 3 8 4 9 5 10 6 11 7 12 8 13 9 4 10 3 11 2 12 31 13
REMARK SMILES IDX 33 14 32 15 1 16 14 17 15 18 30 19 16 20 29 21 17 22 21 23
REMARK SMILES IDX 18 24 20 25 19 26 22 27 23 28 28 29 24 30 27 31 25 32 26 33
REMARK H PARENT 26 34 26 35
ROOT
ATOM      1  C   UNL     1     -11.131   5.638 -16.289  1.00  0.00    +0.121 A 
ATOM      2  C   UNL     1     -10.230   4.774 -15.666  1.00  0.00    +0.049 A 
ATOM      3  C   UNL     1     -10.628   3.887 -14.657  1.00  0.00    +0.033 A 
ATOM      4  C   UNL     1     -11.985   3.872 -14.296  1.00  0.00    +0.075 A 
ATOM      5  C   UNL     1     -12.889   4.765 -14.877  1.00  0.00    +0.093 A 
ATOM      6  C   UNL     1     -12.469   5.644 -15.892  1.00  0.00    +0.077 A 
ATOM      7  N   UNL     1     -14.132   4.662 -14.317  1.00  0.00    -0.236 NA
ATOM      8  C   UNL     1     -14.010   3.725 -13.406  1.00  0.00    +0.206 A 
ATOM      9  N   UNL     1     -12.752   3.160 -13.376  1.00  0.00    -0.283 N 
ENDROOT
BRANCH   1  10
ATOM     10  O   UNL     1     -10.579   6.435 -17.255  1.00  0.00    -0.493 OA
BRANCH  10  11
ATOM     11  C   UNL     1     -10.795   6.055 -18.616  1.00  0.00    +0.241 C 
BRANCH  11  12
ATOM     12  C   UNL     1      -9.690   6.678 -19.470  1.00  0.00    +0.048 C 
ATOM     13  C   UNL     1      -9.665   8.215 -19.384  1.00  0.00    +0.172 C 
ATOM     14  C   UNL     1     -10.101   6.924 -20.933  1.00  0.00    +0.172 C 
ATOM     15  O   UNL     1     -10.319   8.334 -20.670  1.00  0.00    -0.380 OA
ATOM     16  C   UNL     1      -8.330   6.020 -19.276  1.00  0.00    +0.020 C 
ENDBRANCH  11  12
ENDBRANCH  10  11
ENDBRANCH   1  10
BRANCH   9  17
ATOM     17  C   UNL     1     -12.418   2.065 -12.526  1.00  0.00    +0.139 A 
ATOM     18  C   UNL     1     -13.216   1.713 -11.455  1.00  0.00    +0.048 A 
ATOM     19  N   UNL     1     -11.256   1.415 -12.803  1.00  0.00    -0.228 NA
ATOM     20  C   UNL     1     -12.827   0.635 -10.667  1.00  0.00    +0.014 A 
ATOM     21  C   UNL     1     -10.866   0.353 -12.052  1.00  0.00    +0.096 A 
ATOM     22  C   UNL     1     -11.651  -0.066 -10.956  1.00  0.00    +0.002 A 
ATOM     23  C   UNL     1      -9.678  -0.373 -12.325  1.00  0.00    +0.063 A 
ATOM     24  C   UNL     1     -11.265  -1.155 -10.159  1.00  0.00    +0.010 A 
ATOM     25  C   UNL     1      -9.311  -1.462 -11.511  1.00  0.00    +0.028 A 
ATOM     26  C   UNL     1     -10.096  -1.853 -10.435  1.00  0.00    +0.003 A 
BRANCH  23  27
ATOM     27  N   UNL     1      -8.776  -0.089 -13.394  1.00  0.00    -0.370 N 
ATOM     28  C   UNL     1      -9.397  -0.301 -14.712  1.00  0.00    +0.118 C 
ATOM     29  C   UNL     1      -7.486  -0.781 -13.243  1.00  0.00    +0.118 C 
ATOM     30  C   UNL     1      -8.473   0.277 -15.784  1.00  0.00    +0.040 C 
ATOM     31  C   UNL     1      -6.507  -0.218 -14.275  1.00  0.00    +0.040 C 
ATOM     32  C   UNL     1      -7.052  -0.296 -15.709  1.00  0.00    +0.054 C 
BRANCH  32  33
ATOM     33  N   UNL     1      -7.009  -1.663 -16.241  1.00  0.00    -0.328 NA
ATOM     34  H   UNL     1      -6.187  -2.157 -15.900  1.00  0.00    +0.119 HD
ATOM     35  H   UNL     1      -6.916  -1.635 -17.256  1.00  0.00    +0.119 HD
ENDBRANCH  32  33
ENDBRANCH  23  27
ENDBRANCH   9  17
TORSDOF 6
ENDMDL
MODEL 5
REMARK VINA RESULT:    -9.571      2.634      3.926
REMARK INTER + INTRA:         -13.623
REMARK INTER:                 -12.833
REMARK INTRA:                  -0.790
REMARK UNBOUND:                -0.975
REMARK SMILES CC1(COc2ccc3c(c2)ncn3-c2ccc3cccc(N4CCC(N)CC4)c3n2)COC1
REMARK SMILES IDX 5 1 6 2 7 3 8 4 9 5 10 6 11 7 12 8 13 9 4 10 3 11 2 12 31 13
REMARK SMILES IDX 33 14 32 15 1 16 14 17 15 18 30 19 16 20 29 21 17 22 21 23
REMARK SMILES IDX 18 24 20 25 19 26 22 27 23 28 28 29 24 30 27 31 25 32 26 33
REMARK H PARENT 26 34 26 35
ROOT
ATOM      1  C   UNL     1     -13.853  -0.333  -9.470  1.00  0.00    +0.121 A 
ATOM      2  C   UNL     1     -14.351   0.873  -9.961  1.00  0.00    +0.049 A 
ATOM      3  C   UNL     1     -13.687   1.599 -10.960  1.00  0.00    +0.033 A 
ATOM      4  C   UNL     1     -12.499   1.062 -11.480  1.00  0.00    +0.075 A 
ATOM      5  C   UNL     1     -11.964  -0.121 -10.963  1.00  0.00    +0.093 A 
ATOM      6  C   UNL     1     -12.649  -0.836  -9.964  1.00  0.00    +0.077 A 
ATOM      7  N   UNL     1     -10.754  -0.418 -11.528  1.00  0.00    -0.236 NA
ATOM      8  C   UNL     1     -10.538   0.556 -12.380  1.00  0.00    +0.206 A 
ATOM      9  N   UNL     1     -11.578   1.459 -12.447  1.00  0.00    -0.283 N 
ENDROOT
BRANCH   1  10
ATOM     10  O   UNL     1     -14.625  -0.913  -8.499  1.00  0.00    -0.493 OA
BRANCH  10  11
ATOM     11  C   UNL     1     -15.357  -0.036  -7.639  1.00  0.00    +0.241 C 
BRANCH  11  12
ATOM     12  C   UNL     1     -16.489  -0.834  -6.991  1.00  0.00    +0.048 C 
ATOM     13  C   UNL     1     -17.769  -0.001  -6.797  1.00  0.00    +0.172 C 
ATOM     14  C   UNL     1     -16.445  -0.835  -5.452  1.00  0.00    +0.172 C 
ATOM     15  O   UNL     1     -17.484   0.175  -5.388  1.00  0.00    -0.380 OA
ATOM     16  C   UNL     1     -16.721  -2.193  -7.638  1.00  0.00    +0.020 C 
ENDBRANCH  11  12
ENDBRANCH  10  11
ENDBRANCH   1  10
BRANCH   9  17
ATOM     17  C   UNL     1     -11.598   2.548 -13.368  1.00  0.00    +0.139 A 
ATOM     18  C   UNL     1     -12.646   3.447 -13.400  1.00  0.00    +0.048 A 
ATOM     19  N   UNL     1     -10.552   2.628 -14.234  1.00  0.00    -0.228 NA
ATOM     20  C   UNL     1     -12.598   4.483 -14.327  1.00  0.00    +0.014 A 
ATOM     21  C   UNL     1     -10.483   3.639 -15.137  1.00  0.00    +0.096 A 
ATOM     22  C   UNL     1     -11.515   4.600 -15.205  1.00  0.00    +0.002 A 
ATOM     23  C   UNL     1      -9.397   3.777 -16.039  1.00  0.00    +0.063 A 
ATOM     24  C   UNL     1     -11.472   5.650 -16.136  1.00  0.00    +0.010 A 
ATOM     25  C   UNL     1      -9.375   4.838 -16.964  1.00  0.00    +0.028 A 
ATOM     26  C   UNL     1     -10.403   5.769 -17.015  1.00  0.00    +0.003 A 
BRANCH  23  27
ATOM     27  N   UNL     1      -8.272   2.902 -16.100  1.00  0.00    -0.370 N 
ATOM     28  C   UNL     1      -7.078   3.572 -16.641  1.00  0.00    +0.118 C 
ATOM     29  C   UNL     1      -8.581   1.633 -16.779  1.00  0.00    +0.118 C 
ATOM     30  C   UNL     1      -5.868   2.664 -16.423  1.00  0.00    +0.040 C 
ATOM     31  C   UNL     1      -7.413   0.668 -16.566  1.00  0.00    +0.040 C 
ATOM     32  C   UNL     1      -6.069   1.263 -17.013  1.00  0.00    +0.054 C 
BRANCH  32  33
ATOM     33  N   UNL     1      -5.935   1.286 -18.474  1.00  0.00    -0.328 NA
ATOM     34  H   UNL     1      -5.561   0.402 -18.816  1.00  0.00    +0.119 HD
ATOM     35  H   UNL     1      -5.260   1.999 -18.747  1.00  0.00    +0.119 HD
ENDBRANCH  32  33
ENDBRANCH  23  27
ENDBRANCH   9  17
TORSDOF 6
ENDMDL
MODEL 6
REMARK VINA RESULT:    -9.538      4.245      8.547
REMARK INTER + INTRA:         -13.580
REMARK INTER:                 -12.569
REMARK INTRA:                  -1.011
REMARK UNBOUND:                -0.975
REMARK SMILES CC1(COc2ccc3c(c2)ncn3-c2ccc3cccc(N4CCC(N)CC4)c3n2)COC1
REMARK SMILES IDX 5 1 6 2 7 3 8 4 9 5 10 6 11 7 12 8 13 9 4 10 3 11 2 12 31 13
REMARK SMILES IDX 33 14 32 15 1 16 14 17 15 18 30 19 16 20 29 21 17 22 21 23
REMARK SMILES IDX 18 24 20 25 19 26 22 27 23 28 28 29 24 30 27 31 25 32 26 33
REMARK H PARENT 26 34 26 35
ROOT
ATOM      1  C   UNL     1      -4.982   0.964 -17.662  1.00  0.00    +0.121 A 
ATOM      2  C   UNL     1      -6.321   0.971 -18.052  1.00  0.00    +0.049 A 
ATOM      3  C   UNL     1      -7.329   1.510 -17.241  1.00  0.00    +0.033 A 
ATOM      4  C   UNL     1      -6.950   2.072 -16.012  1.00  0.00    +0.075 A 
ATOM      5  C   UNL     1      -5.620   2.028 -15.586  1.00  0.00    +0.093 A 
ATOM      6  C   UNL     1      -4.623   1.487 -16.419  1.00  0.00    +0.077 A 
ATOM      7  N   UNL     1      -5.476   2.532 -14.323  1.00  0.00    -0.236 NA
ATOM      8  C   UNL     1      -6.688   2.884 -13.966  1.00  0.00    +0.206 A 
ATOM      9  N   UNL     1      -7.624   2.689 -14.960  1.00  0.00    -0.283 N 
ENDROOT
BRANCH   1  10
ATOM     10  O   UNL     1      -4.128   0.403 -18.572  1.00  0.00    -0.493 OA
BRANCH  10  11
ATOM     11  C   UNL     1      -3.217  -0.587 -18.087  1.00  0.00    +0.241 C 
BRANCH  11  12
ATOM     12  C   UNL     1      -1.819  -0.246 -18.602  1.00  0.00    +0.048 C 
ATOM     13  C   UNL     1      -1.024   0.640 -17.625  1.00  0.00    +0.172 C 
ATOM     14  C   UNL     1      -1.778   0.994 -19.512  1.00  0.00    +0.172 C 
ATOM     15  O   UNL     1      -1.285   1.818 -18.426  1.00  0.00    -0.380 OA
ATOM     16  C   UNL     1      -1.048  -1.456 -19.113  1.00  0.00    +0.020 C 
ENDBRANCH  11  12
ENDBRANCH  10  11
ENDBRANCH   1  10
BRANCH   9  17
ATOM     17  C   UNL     1      -8.988   3.081 -14.824  1.00  0.00    +0.139 A 
ATOM     18  C   UNL     1      -9.536   4.074 -15.614  1.00  0.00    +0.048 A 
ATOM     19  N   UNL     1      -9.705   2.456 -13.852  1.00  0.00    -0.228 NA
ATOM     20  C   UNL     1     -10.873   4.407 -15.424  1.00  0.00    +0.014 A 
ATOM     21  C   UNL     1     -11.014   2.760 -13.660  1.00  0.00    +0.096 A 
ATOM     22  C   UNL     1     -11.635   3.752 -14.450  1.00  0.00    +0.002 A 
ATOM     23  C   UNL     1     -11.807   2.111 -12.678  1.00  0.00    +0.063 A 
ATOM     24  C   UNL     1     -12.985   4.091 -14.265  1.00  0.00    +0.010 A 
ATOM     25  C   UNL     1     -13.159   2.468 -12.511  1.00  0.00    +0.028 A 
ATOM     26  C   UNL     1     -13.746   3.450 -13.296  1.00  0.00    +0.003 A 
BRANCH  23  27
ATOM     27  N   UNL     1     -11.342   1.085 -11.803  1.00  0.00    -0.370 N 
ATOM     28  C   UNL     1     -10.967  -0.137 -12.533  1.00  0.00    +0.118 C 
ATOM     29  C   UNL     1     -12.269   0.832 -10.687  1.00  0.00    +0.118 C 
ATOM     30  C   UNL     1     -10.234  -1.073 -11.572  1.00  0.00    +0.040 C 
ATOM     31  C   UNL     1     -11.574  -0.079  -9.673  1.00  0.00    +0.040 C 
ATOM     32  C   UNL     1     -11.049  -1.375 -10.308  1.00  0.00    +0.054 C 
BRANCH  32  33
ATOM     33  N   UNL     1     -12.130  -2.325 -10.596  1.00  0.00    -0.328 NA
ATOM     34  H   UNL     1     -12.190  -2.511 -11.595  1.00  0.00    +0.119 HD
ATOM     35  H   UNL     1     -13.027  -1.915 -10.335  1.00  0.00    +0.119 HD
ENDBRANCH  32  33
ENDBRANCH  23  27
ENDBRANCH   9  17
TORSDOF 6
ENDMDL
MODEL 7
REMARK VINA RESULT:    -9.441      3.860      8.976
REMARK INTER + INTRA:         -13.452
REMARK INTER:                 -12.671
REMARK INTRA:                  -0.781
REMARK UNBOUND:                -0.975
REMARK SMILES CC1(COc2ccc3c(c2)ncn3-c2ccc3cccc(N4CCC(N)CC4)c3n2)COC1
REMARK SMILES IDX 5 1 6 2 7 3 8 4 9 5 10 6 11 7 12 8 13 9 4 10 3 11 2 12 31 13
REMARK SMILES IDX 33 14 32 15 1 16 14 17 15 18 30 19 16 20 29 21 17 22 21 23
REMARK SMILES IDX 18 24 20 25 19 26 22 27 23 28 28 29 24 30 27 31 25 32 26 33
REMARK H PARENT 26 34 26 35
ROOT
ATOM      1  C   UNL     1      -9.206   5.275 -16.940  1.00  0.00    +0.121 A 
ATOM      2  C   UNL     1     -10.430   5.587 -16.348  1.00  0.00    +0.049 A 
ATOM      3  C   UNL     1     -11.054   4.728 -15.432  1.00  0.00    +0.033 A 
ATOM      4  C   UNL     1     -10.395   3.534 -15.101  1.00  0.00    +0.075 A 
ATOM      5  C   UNL     1      -9.193   3.185 -15.723  1.00  0.00    +0.093 A 
ATOM      6  C   UNL     1      -8.581   4.064 -16.635  1.00  0.00    +0.077 A 
ATOM      7  N   UNL     1      -8.769   1.942 -15.343  1.00  0.00    -0.236 NA
ATOM      8  C   UNL     1      -9.684   1.522 -14.502  1.00  0.00    +0.206 A 
ATOM      9  N   UNL     1     -10.670   2.456 -14.262  1.00  0.00    -0.283 N 
ENDROOT
BRANCH   1  10
ATOM     10  O   UNL     1      -8.737   6.222 -17.808  1.00  0.00    -0.493 OA
BRANCH  10  11
ATOM     11  C   UNL     1      -9.412   7.483 -17.824  1.00  0.00    +0.241 C 
BRANCH  11  12
ATOM     12  C   UNL     1      -9.417   8.006 -19.261  1.00  0.00    +0.048 C 
ATOM     13  C   UNL     1     -10.642   7.532 -20.063  1.00  0.00    +0.172 C 
ATOM     14  C   UNL     1      -8.628   7.124 -20.245  1.00  0.00    +0.172 C 
ATOM     15  O   UNL     1      -9.852   6.528 -20.744  1.00  0.00    -0.380 OA
ATOM     16  C   UNL     1      -9.146   9.502 -19.363  1.00  0.00    +0.020 C 
ENDBRANCH  11  12
ENDBRANCH  10  11
ENDBRANCH   1  10
BRANCH   9  17
ATOM     17  C   UNL     1     -11.717   2.249 -13.317  1.00  0.00    +0.139 A 
ATOM     18  C   UNL     1     -12.925   2.911 -13.421  1.00  0.00    +0.048 A 
ATOM     19  N   UNL     1     -11.448   1.397 -12.291  1.00  0.00    -0.228 NA
ATOM     20  C   UNL     1     -13.900   2.661 -12.460  1.00  0.00    +0.014 A 
ATOM     21  C   UNL     1     -12.391   1.132 -11.351  1.00  0.00    +0.096 A 
ATOM     22  C   UNL     1     -13.652   1.764 -11.415  1.00  0.00    +0.002 A 
ATOM     23  C   UNL     1     -12.163   0.228 -10.282  1.00  0.00    +0.063 A 
ATOM     24  C   UNL     1     -14.641   1.514 -10.450  1.00  0.00    +0.010 A 
ATOM     25  C   UNL     1     -13.170  -0.007  -9.326  1.00  0.00    +0.028 A 
ATOM     26  C   UNL     1     -14.401   0.630  -9.407  1.00  0.00    +0.003 A 
BRANCH  23  27
ATOM     27  N   UNL     1     -10.953  -0.498 -10.073  1.00  0.00    -0.370 N 
ATOM     28  C   UNL     1     -10.755  -1.547 -11.087  1.00  0.00    +0.118 C 
ATOM     29  C   UNL     1     -10.824  -0.995  -8.693  1.00  0.00    +0.118 C 
ATOM     30  C   UNL     1      -9.330  -2.087 -10.958  1.00  0.00    +0.040 C 
ATOM     31  C   UNL     1      -9.401  -1.521  -8.495  1.00  0.00    +0.040 C 
ATOM     32  C   UNL     1      -9.013  -2.578  -9.540  1.00  0.00    +0.054 C 
BRANCH  32  33
ATOM     33  N   UNL     1      -9.653  -3.872  -9.278  1.00  0.00    -0.328 NA
ATOM     34  H   UNL     1      -9.045  -4.470  -8.722  1.00  0.00    +0.119 HD
ATOM     35  H   UNL     1      -9.802  -4.367 -10.157  1.00  0.00    +0.119 HD
ENDBRANCH  32  33
ENDBRANCH  23  27
ENDBRANCH   9  17
TORSDOF 6
ENDMDL
MODEL 8
REMARK VINA RESULT:    -9.437      1.856      2.693
REMARK INTER + INTRA:         -13.446
REMARK INTER:                 -12.583
REMARK INTRA:                  -0.863
REMARK UNBOUND:                -0.975
REMARK SMILES CC1(COc2ccc3c(c2)ncn3-c2ccc3cccc(N4CCC(N)CC4)c3n2)COC1
REMARK SMILES IDX 5 1 6 2 7 3 8 4 9 5 10 6 11 7 12 8 13 9 4 10 3 11 2 12 31 13
REMARK SMILES IDX 33 14 32 15 1 16 14 17 15 18 30 19 16 20 29 21 17 22 21 23
REMARK SMILES IDX 18 24 20 25 19 26 22 27 23 28 28 29 24 30 27 31 25 32 26 33
REMARK H PARENT 26 34 26 35
ROOT
ATOM      1  C   UNL     1     -13.771   0.330 -10.144  1.00  0.00    +0.121 A 
ATOM      2  C   UNL     1     -14.159   1.539 -10.720  1.00  0.00    +0.049 A 
ATOM      3  C   UNL     1     -13.373   2.190 -11.681  1.00  0.00    +0.033 A 
ATOM      4  C   UNL     1     -12.174   1.574 -12.074  1.00  0.00    +0.075 A 
ATOM      5  C   UNL     1     -11.750   0.388 -11.469  1.00  0.00    +0.093 A 
ATOM      6  C   UNL     1     -12.556  -0.252 -10.510  1.00  0.00    +0.077 A 
ATOM      7  N   UNL     1     -10.513   0.009 -11.914  1.00  0.00    -0.236 NA
ATOM      8  C   UNL     1     -10.172   0.936 -12.777  1.00  0.00    +0.206 A 
ATOM      9  N   UNL     1     -11.154   1.886 -12.969  1.00  0.00    -0.283 N 
ENDROOT
BRANCH   1  10
ATOM     10  O   UNL     1     -14.653  -0.171  -9.226  1.00  0.00    -0.493 OA
BRANCH  10  11
ATOM     11  C   UNL     1     -14.106  -0.910  -8.131  1.00  0.00    +0.241 C 
BRANCH  11  12
ATOM     12  C   UNL     1     -14.788  -2.278  -8.085  1.00  0.00    +0.048 C 
ATOM     13  C   UNL     1     -13.790  -3.445  -8.201  1.00  0.00    +0.172 C 
ATOM     14  C   UNL     1     -15.281  -2.770  -9.457  1.00  0.00    +0.172 C 
ATOM     15  O   UNL     1     -14.135  -3.648  -9.593  1.00  0.00    -0.380 OA
ATOM     16  C   UNL     1     -15.784  -2.421  -6.943  1.00  0.00    +0.020 C 
ENDBRANCH  11  12
ENDBRANCH  10  11
ENDBRANCH   1  10
BRANCH   9  17
ATOM     17  C   UNL     1     -11.035   2.936 -13.926  1.00  0.00    +0.139 A 
ATOM     18  C   UNL     1     -11.997   3.922 -14.039  1.00  0.00    +0.048 A 
ATOM     19  N   UNL     1      -9.949   2.893 -14.742  1.00  0.00    -0.228 NA
ATOM     20  C   UNL     1     -11.816   4.914 -14.998  1.00  0.00    +0.014 A 
ATOM     21  C   UNL     1      -9.750   3.859 -15.675  1.00  0.00    +0.096 A 
ATOM     22  C   UNL     1     -10.689   4.902 -15.825  1.00  0.00    +0.002 A 
ATOM     23  C   UNL     1      -8.615   3.868 -16.527  1.00  0.00    +0.063 A 
ATOM     24  C   UNL     1     -10.511   5.909 -16.789  1.00  0.00    +0.010 A 
ATOM     25  C   UNL     1      -8.458   4.887 -17.486  1.00  0.00    +0.028 A 
ATOM     26  C   UNL     1      -9.397   5.901 -17.619  1.00  0.00    +0.003 A 
BRANCH  23  27
ATOM     27  N   UNL     1      -7.571   2.897 -16.505  1.00  0.00    -0.370 N 
ATOM     28  C   UNL     1      -6.287   3.455 -16.960  1.00  0.00    +0.118 C 
ATOM     29  C   UNL     1      -7.941   1.653 -17.201  1.00  0.00    +0.118 C 
ATOM     30  C   UNL     1      -5.180   2.446 -16.651  1.00  0.00    +0.040 C 
ATOM     31  C   UNL     1      -6.881   0.592 -16.901  1.00  0.00    +0.040 C 
ATOM     32  C   UNL     1      -5.461   1.062 -17.251  1.00  0.00    +0.054 C 
BRANCH  32  33
ATOM     33  N   UNL     1      -5.221   1.060 -18.699  1.00  0.00    -0.328 NA
ATOM     34  H   UNL     1      -6.045   1.386 -19.201  1.00  0.00    +0.119 HD
ATOM     35  H   UNL     1      -5.060   0.106 -19.020  1.00  0.00    +0.119 HD
ENDBRANCH  32  33
ENDBRANCH  23  27
ENDBRANCH   9  17
TORSDOF 6
ENDMDL
MODEL 9
REMARK VINA RESULT:    -9.359      3.808      9.435
REMARK INTER + INTRA:         -13.344
REMARK INTER:                 -12.663
REMARK INTRA:                  -0.681
REMARK UNBOUND:                -0.975
REMARK SMILES CC1(COc2ccc3c(c2)ncn3-c2ccc3cccc(N4CCC(N)CC4)c3n2)COC1
REMARK SMILES IDX 5 1 6 2 7 3 8 4 9 5 10 6 11 7 12 8 13 9 4 10 3 11 2 12 31 13
REMARK SMILES IDX 33 14 32 15 1 16 14 17 15 18 30 19 16 20 29 21 17 22 21 23
REMARK SMILES IDX 18 24 20 25 19 26 22 27 23 28 28 29 24 30 27 31 25 32 26 33
REMARK H PARENT 26 34 26 35
ROOT
ATOM      1  C   UNL     1     -10.968   5.535 -16.303  1.00  0.00    +0.121 A 
ATOM      2  C   UNL     1      -9.931   4.639 -16.045  1.00  0.00    +0.049 A 
ATOM      3  C   UNL     1     -10.061   3.598 -15.116  1.00  0.00    +0.033 A 
ATOM      4  C   UNL     1     -11.292   3.462 -14.454  1.00  0.00    +0.075 A 
ATOM      5  C   UNL     1     -12.323   4.380 -14.667  1.00  0.00    +0.093 A 
ATOM      6  C   UNL     1     -12.173   5.415 -15.608  1.00  0.00    +0.077 A 
ATOM      7  N   UNL     1     -13.395   4.135 -13.854  1.00  0.00    -0.236 NA
ATOM      8  C   UNL     1     -13.043   3.086 -13.149  1.00  0.00    +0.206 A 
ATOM      9  N   UNL     1     -11.805   2.588 -13.499  1.00  0.00    -0.283 N 
ENDROOT
BRANCH   1  10
ATOM     10  O   UNL     1     -10.676   6.489 -17.239  1.00  0.00    -0.493 OA
BRANCH  10  11
ATOM     11  C   UNL     1     -10.828   6.123 -18.614  1.00  0.00    +0.241 C 
BRANCH  11  12
ATOM     12  C   UNL     1      -9.655   6.707 -19.400  1.00  0.00    +0.048 C 
ATOM     13  C   UNL     1      -9.537   8.235 -19.246  1.00  0.00    +0.172 C 
ATOM     14  C   UNL     1      -9.993   7.039 -20.864  1.00  0.00    +0.172 C 
ATOM     15  O   UNL     1     -10.133   8.448 -20.548  1.00  0.00    -0.380 OA
ATOM     16  C   UNL     1      -8.347   5.957 -19.186  1.00  0.00    +0.020 C 
ENDBRANCH  11  12
ENDBRANCH  10  11
ENDBRANCH   1  10
BRANCH   9  17
ATOM     17  C   UNL     1     -11.260   1.402 -12.925  1.00  0.00    +0.139 A 
ATOM     18  C   UNL     1     -10.252   0.694 -13.551  1.00  0.00    +0.048 A 
ATOM     19  N   UNL     1     -11.812   0.986 -11.754  1.00  0.00    -0.228 NA
ATOM     20  C   UNL     1      -9.771  -0.456 -12.934  1.00  0.00    +0.014 A 
ATOM     21  C   UNL     1     -11.347  -0.128 -11.131  1.00  0.00    +0.096 A 
ATOM     22  C   UNL     1     -10.305  -0.882 -11.713  1.00  0.00    +0.002 A 
ATOM     23  C   UNL     1     -11.873  -0.580  -9.893  1.00  0.00    +0.063 A 
ATOM     24  C   UNL     1      -9.813  -2.042 -11.094  1.00  0.00    +0.010 A 
ATOM     25  C   UNL     1     -11.363  -1.746  -9.291  1.00  0.00    +0.028 A 
ATOM     26  C   UNL     1     -10.341  -2.475  -9.885  1.00  0.00    +0.003 A 
BRANCH  23  27
ATOM     27  N   UNL     1     -12.919   0.064  -9.168  1.00  0.00    -0.370 N 
ATOM     28  C   UNL     1     -13.124  -0.539  -7.841  1.00  0.00    +0.118 C 
ATOM     29  C   UNL     1     -14.160   0.180  -9.950  1.00  0.00    +0.118 C 
ATOM     30  C   UNL     1     -14.056   0.365  -7.034  1.00  0.00    +0.040 C 
ATOM     31  C   UNL     1     -15.124   1.103  -9.202  1.00  0.00    +0.040 C 
ATOM     32  C   UNL     1     -15.378   0.645  -7.759  1.00  0.00    +0.054 C 
BRANCH  32  33
ATOM     33  N   UNL     1     -16.266  -0.521  -7.700  1.00  0.00    -0.328 NA
ATOM     34  H   UNL     1     -15.990  -1.148  -6.946  1.00  0.00    +0.119 HD
ATOM     35  H   UNL     1     -16.179  -1.065  -8.559  1.00  0.00    +0.119 HD
ENDBRANCH  32  33
ENDBRANCH  23  27
ENDBRANCH   9  17
TORSDOF 6
ENDMDL
MODEL 10
REMARK VINA RESULT:    -9.070      4.266      8.612
REMARK INTER + INTRA:         -12.961
REMARK INTER:                 -12.067
REMARK INTRA:                  -0.895
REMARK UNBOUND:                -0.975
REMARK SMILES CC1(COc2ccc3c(c2)ncn3-c2ccc3cccc(N4CCC(N)CC4)c3n2)COC1
REMARK SMILES IDX 5 1 6 2 7 3 8 4 9 5 10 6 11 7 12 8 13 9 4 10 3 11 2 12 31 13
REMARK SMILES IDX 33 14 32 15 1 16 14 17 15 18 30 19 16 20 29 21 17 22 21 23
REMARK SMILES IDX 18 24 20 25 19 26 22 27 23 28 28 29 24 30 27 31 25 32 26 33
REMARK H PARENT 26 34 26 35
ROOT
ATOM      1  C   UNL     1      -4.626   0.773 -17.111  1.00  0.00    +0.121 A 
ATOM      2  C   UNL     1      -5.847   1.278 -17.557  1.00  0.00    +0.049 A 
ATOM      3  C   UNL     1      -6.952   1.411 -16.705  1.00  0.00    +0.033 A 
ATOM      4  C   UNL     1      -6.791   1.038 -15.361  1.00  0.00    +0.075 A 
ATOM      5  C   UNL     1      -5.589   0.485 -14.912  1.00  0.00    +0.093 A 
ATOM      6  C   UNL     1      -4.490   0.365 -15.783  1.00  0.00    +0.077 A 
ATOM      7  N   UNL     1      -5.669   0.093 -13.605  1.00  0.00    -0.236 NA
ATOM      8  C   UNL     1      -6.894   0.394 -13.243  1.00  0.00    +0.206 A 
ATOM      9  N   UNL     1      -7.614   1.023 -14.238  1.00  0.00    -0.283 N 
ENDROOT
BRANCH   1  10
ATOM     10  O   UNL     1      -3.652   0.711 -18.071  1.00  0.00    -0.493 OA
BRANCH  10  11
ATOM     11  C   UNL     1      -3.098  -0.576 -18.356  1.00  0.00    +0.241 C 
BRANCH  11  12
ATOM     12  C   UNL     1      -1.642  -0.389 -18.782  1.00  0.00    +0.048 C 
ATOM     13  C   UNL     1      -1.476  -0.291 -20.310  1.00  0.00    +0.172 C 
ATOM     14  C   UNL     1      -0.867  -1.709 -18.941  1.00  0.00    +0.172 C 
ATOM     15  O   UNL     1      -1.013  -1.661 -20.383  1.00  0.00    -0.380 OA
ATOM     16  C   UNL     1      -0.918   0.703 -18.006  1.00  0.00    +0.020 C 
ENDBRANCH  11  12
ENDBRANCH  10  11
ENDBRANCH   1  10
BRANCH   9  17
ATOM     17  C   UNL     1      -8.936   1.518 -14.038  1.00  0.00    +0.139 A 
ATOM     18  C   UNL     1      -9.837   0.863 -13.220  1.00  0.00    +0.048 A 
ATOM     19  N   UNL     1      -9.272   2.642 -14.725  1.00  0.00    -0.228 NA
ATOM     20  C   UNL     1     -11.111   1.403 -13.075  1.00  0.00    +0.014 A 
ATOM     21  C   UNL     1     -10.507   3.190 -14.586  1.00  0.00    +0.096 A 
ATOM     22  C   UNL     1     -11.464   2.576 -13.749  1.00  0.00    +0.002 A 
ATOM     23  C   UNL     1     -10.890   4.378 -15.260  1.00  0.00    +0.063 A 
ATOM     24  C   UNL     1     -12.751   3.118 -13.596  1.00  0.00    +0.010 A 
ATOM     25  C   UNL     1     -12.186   4.903 -15.091  1.00  0.00    +0.028 A 
ATOM     26  C   UNL     1     -13.112   4.279 -14.266  1.00  0.00    +0.003 A 
BRANCH  23  27
ATOM     27  N   UNL     1     -10.047   5.127 -16.135  1.00  0.00    -0.370 N 
ATOM     28  C   UNL     1     -10.633   6.431 -16.485  1.00  0.00    +0.118 C 
ATOM     29  C   UNL     1      -9.620   4.349 -17.310  1.00  0.00    +0.118 C 
ATOM     30  C   UNL     1      -9.567   7.270 -17.190  1.00  0.00    +0.040 C 
ATOM     31  C   UNL     1      -8.526   5.129 -18.040  1.00  0.00    +0.040 C 
ATOM     32  C   UNL     1      -8.963   6.556 -18.406  1.00  0.00    +0.054 C 
BRANCH  32  33
ATOM     33  N   UNL     1      -9.895   6.572 -19.540  1.00  0.00    -0.328 NA
ATOM     34  H   UNL     1     -10.477   7.408 -19.516  1.00  0.00    +0.119 HD
ATOM     35  H   UNL     1     -10.537   5.783 -19.470  1.00  0.00    +0.119 HD
ENDBRANCH  32  33
ENDBRANCH  23  27
ENDBRANCH   9  17
TORSDOF 6
ENDMDL
