MODEL 1
REMARK VINA RESULT:   -11.781      0.000      0.000
REMARK INTER + INTRA:         -15.736
REMARK INTER:                 -15.914
REMARK INTRA:                   0.178
REMARK UNBOUND:                 0.178
REMARK SMILES CNC(=O)c1cc(Oc2ccc(NC(=O)Nc3ccc(Cl)c(C(F)(F)F)c3)c(F)c2)ccn1
REMARK SMILES IDX 9 1 10 2 11 3 12 4 28 5 29 6 30 7 8 8 7 9 5 10 6 11 33 12
REMARK SMILES IDX 32 13 31 14 3 15 2 16 4 17 1 18 13 20 14 21 15 22 16 23
REMARK SMILES IDX 17 26 18 27 27 28 19 29 22 30 20 31 21 32 23 33 24 34 25 35
REMARK SMILES IDX 26 36
REMARK H PARENT 2 19 13 24 16 25
ROOT
ATOM      1  C   UNL     1     -39.858 160.788  -0.074  1.00  0.00    +0.130 A 
ATOM      2  C   UNL     1     -38.545 160.371   0.150  1.00  0.00    +0.049 A 
ATOM      3  C   UNL     1     -38.280 159.304   1.016  1.00  0.00    +0.033 A 
ATOM      4  C   UNL     1     -39.328 158.660   1.674  1.00  0.00    +0.079 A 
ATOM      5  C   UNL     1     -40.636 159.117   1.459  1.00  0.00    +0.150 A 
ATOM      6  F   UNL     1     -41.654 158.521   2.101  1.00  0.00    -0.205 F 
ATOM      7  C   UNL     1     -40.913 160.174   0.598  1.00  0.00    +0.088 A 
ENDROOT
BRANCH   1   8
ATOM      8  O   UNL     1     -40.044 161.861  -0.915  1.00  0.00    -0.457 OA
BRANCH   8   9
ATOM      9  C   UNL     1     -39.463 161.786  -2.160  1.00  0.00    +0.131 A 
ATOM     10  C   UNL     1     -38.617 162.916  -4.065  1.00  0.00    +0.131 A 
ATOM     11  C   UNL     1     -39.233 162.983  -2.825  1.00  0.00    +0.081 A 
ATOM     12  N   UNL     1     -38.219 161.753  -4.657  1.00  0.00    -0.251 NA
ATOM     13  C   UNL     1     -38.438 160.616  -3.962  1.00  0.00    +0.116 A 
ATOM     14  C   UNL     1     -39.046 160.580  -2.720  1.00  0.00    +0.067 A 
BRANCH  10  15
ATOM     15  C   UNL     1     -38.362 164.175  -4.837  1.00  0.00    +0.269 C 
ATOM     16  N   UNL     1     -38.326 164.002  -6.205  1.00  0.00    -0.354 N 
ATOM     17  O   UNL     1     -38.216 165.254  -4.273  1.00  0.00    -0.268 OA
ATOM     18  C   UNL     1     -38.219 165.106  -7.119  1.00  0.00    +0.143 C 
ATOM     19  H   UNL     1     -38.564 163.073  -6.542  1.00  0.00    +0.163 HD
ENDBRANCH  10  15
ENDBRANCH   8   9
ENDBRANCH   1   8
BRANCH   4  20
ATOM     20  N   UNL     1     -39.166 157.583   2.573  1.00  0.00    -0.305 N 
ATOM     21  C   UNL     1     -37.985 157.117   3.126  1.00  0.00    +0.323 C 
ATOM     22  O   UNL     1     -36.870 157.533   2.843  1.00  0.00    -0.248 OA
ATOM     23  N   UNL     1     -38.248 156.112   4.045  1.00  0.00    -0.308 N 
ATOM     24  H   UNL     1     -39.991 157.011   2.699  1.00  0.00    +0.171 HD
ATOM     25  H   UNL     1     -39.208 156.037   4.347  1.00  0.00    +0.171 HD
BRANCH  23  26
ATOM     26  C   UNL     1     -37.313 155.322   4.745  1.00  0.00    +0.043 A 
ATOM     27  C   UNL     1     -37.547 153.945   4.789  1.00  0.00    +0.028 A 
ATOM     28  C   UNL     1     -36.171 155.830   5.370  1.00  0.00    +0.040 A 
ATOM     29  C   UNL     1     -36.663 153.096   5.457  1.00  0.00    +0.023 A 
ATOM     30  C   UNL     1     -35.266 154.986   6.049  1.00  0.00    +0.076 A 
ATOM     31  C   UNL     1     -35.529 153.613   6.087  1.00  0.00    +0.053 A 
ATOM     32 Cl   UNL     1     -34.487 152.497   6.892  1.00  0.00    -0.084 Cl
BRANCH  30  33
ATOM     33  C   UNL     1     -34.048 155.569   6.712  1.00  0.00    +0.417 C 
ATOM     34  F   UNL     1     -34.107 155.522   8.072  1.00  0.00    -0.166 F 
ATOM     35  F   UNL     1     -33.839 156.883   6.406  1.00  0.00    -0.166 F 
ATOM     36  F   UNL     1     -32.896 154.934   6.357  1.00  0.00    -0.166 F 
ENDBRANCH  30  33
ENDBRANCH  23  26
ENDBRANCH   4  20
TORSDOF 6
ENDMDL
MODEL 2
REMARK VINA RESULT:   -11.254      2.081      2.723
REMARK INTER + INTRA:         -15.023
REMARK INTER:                 -14.222
REMARK INTRA:                  -0.802
REMARK UNBOUND:                 0.178
REMARK SMILES CNC(=O)c1cc(Oc2ccc(NC(=O)Nc3ccc(Cl)c(C(F)(F)F)c3)c(F)c2)ccn1
REMARK SMILES IDX 9 1 10 2 11 3 12 4 28 5 29 6 30 7 8 8 7 9 5 10 6 11 33 12
REMARK SMILES IDX 32 13 31 14 3 15 2 16 4 17 1 18 13 20 14 21 15 22 16 23
REMARK SMILES IDX 17 26 18 27 27 28 19 29 22 30 20 31 21 32 23 33 24 34 25 35
REMARK SMILES IDX 26 36
REMARK H PARENT 2 19 13 24 16 25
ROOT
ATOM      1  C   UNL     1     -39.754 160.884  -2.046  1.00  0.00    +0.130 A 
ATOM      2  C   UNL     1     -40.370 160.896  -0.794  1.00  0.00    +0.049 A 
ATOM      3  C   UNL     1     -40.042 159.930   0.164  1.00  0.00    +0.033 A 
ATOM      4  C   UNL     1     -39.106 158.939  -0.133  1.00  0.00    +0.079 A 
ATOM      5  C   UNL     1     -38.525 158.927  -1.409  1.00  0.00    +0.150 A 
ATOM      6  F   UNL     1     -37.637 157.967  -1.717  1.00  0.00    -0.205 F 
ATOM      7  C   UNL     1     -38.840 159.883  -2.369  1.00  0.00    +0.088 A 
ENDROOT
BRANCH   1   8
ATOM      8  O   UNL     1     -40.145 161.844  -2.951  1.00  0.00    -0.457 OA
BRANCH   8   9
ATOM      9  C   UNL     1     -39.145 162.545  -3.587  1.00  0.00    +0.131 A 
ATOM     10  C   UNL     1     -37.776 162.818  -5.503  1.00  0.00    +0.131 A 
ATOM     11  C   UNL     1     -38.759 162.097  -4.843  1.00  0.00    +0.081 A 
ATOM     12  N   UNL     1     -37.182 163.938  -4.997  1.00  0.00    -0.251 NA
ATOM     13  C   UNL     1     -37.608 164.351  -3.785  1.00  0.00    +0.116 A 
ATOM     14  C   UNL     1     -38.582 163.700  -3.049  1.00  0.00    +0.067 A 
BRANCH  10  15
ATOM     15  C   UNL     1     -37.306 162.369  -6.853  1.00  0.00    +0.269 C 
ATOM     16  N   UNL     1     -38.180 162.654  -7.881  1.00  0.00    -0.354 N 
ATOM     17  O   UNL     1     -36.224 161.812  -7.002  1.00  0.00    -0.268 OA
ATOM     18  C   UNL     1     -37.854 162.415  -9.260  1.00  0.00    +0.143 C 
ATOM     19  H   UNL     1     -38.994 163.209  -7.632  1.00  0.00    +0.163 HD
ENDBRANCH  10  15
ENDBRANCH   8   9
ENDBRANCH   1   8
BRANCH   4  20
ATOM     20  N   UNL     1     -38.714 157.916   0.759  1.00  0.00    -0.305 N 
ATOM     21  C   UNL     1     -38.082 158.061   1.982  1.00  0.00    +0.323 C 
ATOM     22  O   UNL     1     -37.687 159.123   2.442  1.00  0.00    -0.248 OA
ATOM     23  N   UNL     1     -37.960 156.830   2.609  1.00  0.00    -0.308 N 
ATOM     24  H   UNL     1     -38.777 156.980   0.380  1.00  0.00    +0.171 HD
ATOM     25  H   UNL     1     -38.531 156.089   2.231  1.00  0.00    +0.171 HD
BRANCH  23  26
ATOM     26  C   UNL     1     -37.292 156.544   3.818  1.00  0.00    +0.043 A 
ATOM     27  C   UNL     1     -38.023 155.884   4.810  1.00  0.00    +0.028 A 
ATOM     28  C   UNL     1     -35.954 156.859   4.066  1.00  0.00    +0.040 A 
ATOM     29  C   UNL     1     -37.429 155.560   6.031  1.00  0.00    +0.023 A 
ATOM     30  C   UNL     1     -35.337 156.539   5.294  1.00  0.00    +0.076 A 
ATOM     31  C   UNL     1     -36.093 155.887   6.275  1.00  0.00    +0.053 A 
ATOM     32 Cl   UNL     1     -35.434 155.452   7.809  1.00  0.00    -0.084 Cl
BRANCH  30  33
ATOM     33  C   UNL     1     -33.894 156.896   5.527  1.00  0.00    +0.417 C 
ATOM     34  F   UNL     1     -33.356 157.628   4.513  1.00  0.00    -0.166 F 
ATOM     35  F   UNL     1     -33.080 155.808   5.658  1.00  0.00    -0.166 F 
ATOM     36  F   UNL     1     -33.704 157.620   6.666  1.00  0.00    -0.166 F 
ENDBRANCH  30  33
ENDBRANCH  23  26
ENDBRANCH   4  20
TORSDOF 6
ENDMDL
MODEL 3
REMARK VINA RESULT:   -11.108      1.778      2.232
REMARK INTER + INTRA:         -14.826
REMARK INTER:                 -14.673
REMARK INTRA:                  -0.153
REMARK UNBOUND:                 0.178
REMARK SMILES CNC(=O)c1cc(Oc2ccc(NC(=O)Nc3ccc(Cl)c(C(F)(F)F)c3)c(F)c2)ccn1
REMARK SMILES IDX 9 1 10 2 11 3 12 4 28 5 29 6 30 7 8 8 7 9 5 10 6 11 33 12
REMARK SMILES IDX 32 13 31 14 3 15 2 16 4 17 1 18 13 20 14 21 15 22 16 23
REMARK SMILES IDX 17 26 18 27 27 28 19 29 22 30 20 31 21 32 23 33 24 34 25 35
REMARK SMILES IDX 26 36
REMARK H PARENT 2 19 13 24 16 25
ROOT
ATOM      1  C   UNL     1     -40.045 160.612   0.234  1.00  0.00    +0.130 A 
ATOM      2  C   UNL     1     -38.720 160.353   0.585  1.00  0.00    +0.049 A 
ATOM      3  C   UNL     1     -38.417 159.348   1.511  1.00  0.00    +0.033 A 
ATOM      4  C   UNL     1     -39.442 158.608   2.101  1.00  0.00    +0.079 A 
ATOM      5  C   UNL     1     -40.768 158.908   1.758  1.00  0.00    +0.150 A 
ATOM      6  F   UNL     1     -41.767 158.219   2.332  1.00  0.00    -0.205 F 
ATOM      7  C   UNL     1     -41.082 159.902   0.837  1.00  0.00    +0.088 A 
ENDROOT
BRANCH   1   8
ATOM      8  O   UNL     1     -40.273 161.633  -0.659  1.00  0.00    -0.457 OA
BRANCH   8   9
ATOM      9  C   UNL     1     -39.679 161.524  -1.896  1.00  0.00    +0.131 A 
ATOM     10  C   UNL     1     -38.716 162.601  -3.775  1.00  0.00    +0.131 A 
ATOM     11  C   UNL     1     -39.345 162.705  -2.545  1.00  0.00    +0.081 A 
ATOM     12  N   UNL     1     -38.399 161.415  -4.373  1.00  0.00    -0.251 NA
ATOM     13  C   UNL     1     -38.718 160.293  -3.692  1.00  0.00    +0.116 A 
ATOM     14  C   UNL     1     -39.347 160.294  -2.460  1.00  0.00    +0.067 A 
BRANCH  10  15
ATOM     15  C   UNL     1     -38.352 163.843  -4.531  1.00  0.00    +0.269 C 
ATOM     16  N   UNL     1     -38.403 163.706  -5.902  1.00  0.00    -0.354 N 
ATOM     17  O   UNL     1     -38.051 164.880  -3.952  1.00  0.00    -0.268 OA
ATOM     18  C   UNL     1     -38.210 164.815  -6.796  1.00  0.00    +0.143 C 
ATOM     19  H   UNL     1     -38.766 162.822  -6.248  1.00  0.00    +0.163 HD
ENDBRANCH  10  15
ENDBRANCH   8   9
ENDBRANCH   1   8
BRANCH   4  20
ATOM     20  N   UNL     1     -39.243 157.582   3.051  1.00  0.00    -0.305 N 
ATOM     21  C   UNL     1     -38.049 156.969   3.393  1.00  0.00    +0.323 C 
ATOM     22  O   UNL     1     -36.975 157.180   2.846  1.00  0.00    -0.248 OA
ATOM     23  N   UNL     1     -38.246 156.085   4.442  1.00  0.00    -0.308 N 
ATOM     24  H   UNL     1     -40.094 157.161   3.400  1.00  0.00    +0.171 HD
ATOM     25  H   UNL     1     -39.117 156.186   4.942  1.00  0.00    +0.171 HD
BRANCH  23  26
ATOM     26  C   UNL     1     -37.303 155.203   5.011  1.00  0.00    +0.043 A 
ATOM     27  C   UNL     1     -36.158 155.770   5.575  1.00  0.00    +0.028 A 
ATOM     28  C   UNL     1     -37.460 153.815   5.059  1.00  0.00    +0.040 A 
ATOM     29  C   UNL     1     -35.182 154.963   6.164  1.00  0.00    +0.023 A 
ATOM     30  C   UNL     1     -36.484 152.984   5.650  1.00  0.00    +0.076 A 
ATOM     31  C   UNL     1     -35.342 153.576   6.199  1.00  0.00    +0.053 A 
ATOM     32 Cl   UNL     1     -34.090 152.650   6.943  1.00  0.00    -0.084 Cl
BRANCH  30  33
ATOM     33  C   UNL     1     -36.685 151.493   5.682  1.00  0.00    +0.417 C 
ATOM     34  F   UNL     1     -36.753 150.991   6.946  1.00  0.00    -0.166 F 
ATOM     35  F   UNL     1     -35.683 150.797   5.071  1.00  0.00    -0.166 F 
ATOM     36  F   UNL     1     -37.827 151.099   5.051  1.00  0.00    -0.166 F 
ENDBRANCH  30  33
ENDBRANCH  23  26
ENDBRANCH   4  20
TORSDOF 6
ENDMDL
MODEL 4
REMARK VINA RESULT:   -10.853      4.596      7.582
REMARK INTER + INTRA:         -14.482
REMARK INTER:                 -13.978
REMARK INTRA:                  -0.504
REMARK UNBOUND:                 0.178
REMARK SMILES CNC(=O)c1cc(Oc2ccc(NC(=O)Nc3ccc(Cl)c(C(F)(F)F)c3)c(F)c2)ccn1
REMARK SMILES IDX 9 1 10 2 11 3 12 4 28 5 29 6 30 7 8 8 7 9 5 10 6 11 33 12
REMARK SMILES IDX 32 13 31 14 3 15 2 16 4 17 1 18 13 20 14 21 15 22 16 23
REMARK SMILES IDX 17 26 18 27 27 28 19 29 22 30 20 31 21 32 23 33 24 34 25 35
REMARK SMILES IDX 26 36
REMARK H PARENT 2 19 13 24 16 25
ROOT
ATOM      1  C   UNL     1     -37.288 162.402  -7.076  1.00  0.00    +0.130 A 
ATOM      2  C   UNL     1     -37.101 163.410  -6.129  1.00  0.00    +0.049 A 
ATOM      3  C   UNL     1     -37.783 163.369  -4.908  1.00  0.00    +0.033 A 
ATOM      4  C   UNL     1     -38.667 162.325  -4.634  1.00  0.00    +0.079 A 
ATOM      5  C   UNL     1     -38.863 161.340  -5.614  1.00  0.00    +0.150 A 
ATOM      6  F   UNL     1     -39.727 160.339  -5.374  1.00  0.00    -0.205 F 
ATOM      7  C   UNL     1     -38.190 161.368  -6.830  1.00  0.00    +0.088 A 
ENDROOT
BRANCH   1   8
ATOM      8  O   UNL     1     -36.609 162.520  -8.267  1.00  0.00    -0.457 OA
BRANCH   8   9
ATOM      9  C   UNL     1     -37.287 163.101  -9.315  1.00  0.00    +0.131 A 
ATOM     10  C   UNL     1     -37.628 164.999 -10.694  1.00  0.00    +0.131 A 
ATOM     11  C   UNL     1     -36.973 164.419  -9.619  1.00  0.00    +0.081 A 
ATOM     12  N   UNL     1     -38.544 164.350 -11.469  1.00  0.00    -0.251 NA
ATOM     13  C   UNL     1     -38.797 163.062 -11.154  1.00  0.00    +0.116 A 
ATOM     14  C   UNL     1     -38.197 162.396 -10.100  1.00  0.00    +0.067 A 
BRANCH  10  15
ATOM     15  C   UNL     1     -37.344 166.425 -11.055  1.00  0.00    +0.269 C 
ATOM     16  N   UNL     1     -36.021 166.790 -10.923  1.00  0.00    -0.354 N 
ATOM     17  O   UNL     1     -38.231 167.176 -11.444  1.00  0.00    -0.268 OA
ATOM     18  C   UNL     1     -35.530 168.075 -11.338  1.00  0.00    +0.143 C 
ATOM     19  H   UNL     1     -35.374 166.042 -10.688  1.00  0.00    +0.163 HD
ENDBRANCH  10  15
ENDBRANCH   8   9
ENDBRANCH   1   8
BRANCH   4  20
ATOM     20  N   UNL     1     -39.408 162.197  -3.439  1.00  0.00    -0.305 N 
ATOM     21  C   UNL     1     -39.348 161.167  -2.516  1.00  0.00    +0.323 C 
ATOM     22  O   UNL     1     -38.681 160.150  -2.648  1.00  0.00    -0.248 OA
ATOM     23  N   UNL     1     -40.150 161.454  -1.422  1.00  0.00    -0.308 N 
ATOM     24  H   UNL     1     -40.164 162.862  -3.340  1.00  0.00    +0.171 HD
ATOM     25  H   UNL     1     -40.449 162.415  -1.340  1.00  0.00    +0.171 HD
BRANCH  23  26
ATOM     26  C   UNL     1     -40.432 160.620  -0.320  1.00  0.00    +0.043 A 
ATOM     27  C   UNL     1     -41.772 160.489   0.055  1.00  0.00    +0.028 A 
ATOM     28  C   UNL     1     -39.461 159.911   0.393  1.00  0.00    +0.040 A 
ATOM     29  C   UNL     1     -42.131 159.676   1.131  1.00  0.00    +0.023 A 
ATOM     30  C   UNL     1     -39.807 159.084   1.483  1.00  0.00    +0.076 A 
ATOM     31  C   UNL     1     -41.154 158.978   1.845  1.00  0.00    +0.053 A 
ATOM     32 Cl   UNL     1     -41.681 157.995   3.162  1.00  0.00    -0.084 Cl
BRANCH  30  33
ATOM     33  C   UNL     1     -38.735 158.338   2.230  1.00  0.00    +0.417 C 
ATOM     34  F   UNL     1     -38.948 156.993   2.264  1.00  0.00    -0.166 F 
ATOM     35  F   UNL     1     -38.618 158.717   3.536  1.00  0.00    -0.166 F 
ATOM     36  F   UNL     1     -37.494 158.516   1.695  1.00  0.00    -0.166 F 
ENDBRANCH  30  33
ENDBRANCH  23  26
ENDBRANCH   4  20
TORSDOF 6
ENDMDL
MODEL 5
REMARK VINA RESULT:   -10.832      5.302     11.710
REMARK INTER + INTRA:         -14.453
REMARK INTER:                 -13.913
REMARK INTRA:                  -0.540
REMARK UNBOUND:                 0.178
REMARK SMILES CNC(=O)c1cc(Oc2ccc(NC(=O)Nc3ccc(Cl)c(C(F)(F)F)c3)c(F)c2)ccn1
REMARK SMILES IDX 9 1 10 2 11 3 12 4 28 5 29 6 30 7 8 8 7 9 5 10 6 11 33 12
REMARK SMILES IDX 32 13 31 14 3 15 2 16 4 17 1 18 13 20 14 21 15 22 16 23
REMARK SMILES IDX 17 26 18 27 27 28 19 29 22 30 20 31 21 32 23 33 24 34 25 35
REMARK SMILES IDX 26 36
REMARK H PARENT 2 19 13 24 16 25
ROOT
ATOM      1  C   UNL     1     -39.073 158.056   2.657  1.00  0.00    +0.130 A 
ATOM      2  C   UNL     1     -40.147 158.927   2.465  1.00  0.00    +0.049 A 
ATOM      3  C   UNL     1     -40.403 159.465   1.199  1.00  0.00    +0.033 A 
ATOM      4  C   UNL     1     -39.577 159.144   0.121  1.00  0.00    +0.079 A 
ATOM      5  C   UNL     1     -38.485 158.293   0.345  1.00  0.00    +0.150 A 
ATOM      6  F   UNL     1     -37.668 157.992  -0.678  1.00  0.00    -0.205 F 
ATOM      7  C   UNL     1     -38.221 157.750   1.598  1.00  0.00    +0.088 A 
ENDROOT
BRANCH   1   8
ATOM      8  O   UNL     1     -38.860 157.588   3.933  1.00  0.00    -0.457 OA
BRANCH   8   9
ATOM      9  C   UNL     1     -37.557 157.322   4.290  1.00  0.00    +0.131 A 
ATOM     10  C   UNL     1     -35.940 155.736   4.989  1.00  0.00    +0.131 A 
ATOM     11  C   UNL     1     -37.256 156.018   4.660  1.00  0.00    +0.081 A 
ATOM     12  N   UNL     1     -34.931 156.655   4.956  1.00  0.00    -0.251 NA
ATOM     13  C   UNL     1     -35.266 157.903   4.563  1.00  0.00    +0.116 A 
ATOM     14  C   UNL     1     -36.550 158.282   4.218  1.00  0.00    +0.067 A 
BRANCH  10  15
ATOM     15  C   UNL     1     -35.561 154.351   5.416  1.00  0.00    +0.269 C 
ATOM     16  N   UNL     1     -34.254 154.010   5.138  1.00  0.00    -0.354 N 
ATOM     17  O   UNL     1     -36.362 153.611   5.976  1.00  0.00    -0.268 OA
ATOM     18  C   UNL     1     -33.667 152.775   5.581  1.00  0.00    +0.143 C 
ATOM     19  H   UNL     1     -33.670 154.753   4.763  1.00  0.00    +0.163 HD
ENDBRANCH  10  15
ENDBRANCH   8   9
ENDBRANCH   1   8
BRANCH   4  20
ATOM     20  N   UNL     1     -39.745 159.640  -1.190  1.00  0.00    -0.305 N 
ATOM     21  C   UNL     1     -39.101 160.719  -1.772  1.00  0.00    +0.323 C 
ATOM     22  O   UNL     1     -38.330 161.468  -1.189  1.00  0.00    -0.248 OA
ATOM     23  N   UNL     1     -39.455 160.826  -3.108  1.00  0.00    -0.308 N 
ATOM     24  H   UNL     1     -40.529 159.245  -1.692  1.00  0.00    +0.171 HD
ATOM     25  H   UNL     1     -39.904 160.015  -3.508  1.00  0.00    +0.171 HD
BRANCH  23  26
ATOM     26  C   UNL     1     -39.091 161.843  -4.015  1.00  0.00    +0.043 A 
ATOM     27  C   UNL     1     -39.180 163.163  -3.562  1.00  0.00    +0.028 A 
ATOM     28  C   UNL     1     -38.632 161.607  -5.314  1.00  0.00    +0.040 A 
ATOM     29  C   UNL     1     -38.830 164.224  -4.399  1.00  0.00    +0.023 A 
ATOM     30  C   UNL     1     -38.274 162.668  -6.173  1.00  0.00    +0.076 A 
ATOM     31  C   UNL     1     -38.382 163.980  -5.699  1.00  0.00    +0.053 A 
ATOM     32 Cl   UNL     1     -37.971 165.347  -6.669  1.00  0.00    -0.084 Cl
BRANCH  30  33
ATOM     33  C   UNL     1     -37.787 162.376  -7.566  1.00  0.00    +0.417 C 
ATOM     34  F   UNL     1     -36.503 162.779  -7.776  1.00  0.00    -0.166 F 
ATOM     35  F   UNL     1     -38.522 162.992  -8.538  1.00  0.00    -0.166 F 
ATOM     36  F   UNL     1     -37.829 161.050  -7.875  1.00  0.00    -0.166 F 
ENDBRANCH  30  33
ENDBRANCH  23  26
ENDBRANCH   4  20
TORSDOF 6
ENDMDL
MODEL 6
REMARK VINA RESULT:   -10.704      2.104      2.844
REMARK INTER + INTRA:         -14.281
REMARK INTER:                 -14.457
REMARK INTRA:                   0.176
REMARK UNBOUND:                 0.178
REMARK SMILES CNC(=O)c1cc(Oc2ccc(NC(=O)Nc3ccc(Cl)c(C(F)(F)F)c3)c(F)c2)ccn1
REMARK SMILES IDX 9 1 10 2 11 3 12 4 28 5 29 6 30 7 8 8 7 9 5 10 6 11 33 12
REMARK SMILES IDX 32 13 31 14 3 15 2 16 4 17 1 18 13 20 14 21 15 22 16 23
REMARK SMILES IDX 17 26 18 27 27 28 19 29 22 30 20 31 21 32 23 33 24 34 25 35
REMARK SMILES IDX 26 36
REMARK H PARENT 2 19 13 24 16 25
ROOT
ATOM      1  C   UNL     1     -39.355 160.164  -2.622  1.00  0.00    +0.130 A 
ATOM      2  C   UNL     1     -38.876 158.859  -2.495  1.00  0.00    +0.049 A 
ATOM      3  C   UNL     1     -38.877 158.224  -1.248  1.00  0.00    +0.033 A 
ATOM      4  C   UNL     1     -39.346 158.897  -0.119  1.00  0.00    +0.079 A 
ATOM      5  C   UNL     1     -39.792 160.218  -0.265  1.00  0.00    +0.150 A 
ATOM      6  F   UNL     1     -40.227 160.887   0.816  1.00  0.00    -0.205 F 
ATOM      7  C   UNL     1     -39.798 160.860  -1.499  1.00  0.00    +0.088 A 
ENDROOT
BRANCH   1   8
ATOM      8  O   UNL     1     -39.297 160.739  -3.870  1.00  0.00    -0.457 OA
BRANCH   8   9
ATOM      9  C   UNL     1     -38.974 162.076  -3.925  1.00  0.00    +0.131 A 
ATOM     10  C   UNL     1     -38.425 163.967  -5.245  1.00  0.00    +0.131 A 
ATOM     11  C   UNL     1     -38.718 162.614  -5.179  1.00  0.00    +0.081 A 
ATOM     12  N   UNL     1     -38.386 164.793  -4.160  1.00  0.00    -0.251 NA
ATOM     13  C   UNL     1     -38.668 164.232  -2.965  1.00  0.00    +0.116 A 
ATOM     14  C   UNL     1     -38.971 162.893  -2.797  1.00  0.00    +0.067 A 
BRANCH  10  15
ATOM     15  C   UNL     1     -38.120 164.598  -6.570  1.00  0.00    +0.269 C 
ATOM     16  N   UNL     1     -38.012 163.701  -7.613  1.00  0.00    -0.354 N 
ATOM     17  O   UNL     1     -37.996 165.812  -6.689  1.00  0.00    -0.268 OA
ATOM     18  C   UNL     1     -37.848 164.120  -8.977  1.00  0.00    +0.143 C 
ATOM     19  H   UNL     1     -38.238 162.734  -7.393  1.00  0.00    +0.163 HD
ENDBRANCH  10  15
ENDBRANCH   8   9
ENDBRANCH   1   8
BRANCH   4  20
ATOM     20  N   UNL     1     -39.381 158.349   1.182  1.00  0.00    -0.305 N 
ATOM     21  C   UNL     1     -38.305 157.955   1.960  1.00  0.00    +0.323 C 
ATOM     22  O   UNL     1     -37.140 157.951   1.587  1.00  0.00    -0.248 OA
ATOM     23  N   UNL     1     -38.738 157.568   3.218  1.00  0.00    -0.308 N 
ATOM     24  H   UNL     1     -40.303 158.086   1.504  1.00  0.00    +0.171 HD
ATOM     25  H   UNL     1     -39.678 157.843   3.461  1.00  0.00    +0.171 HD
BRANCH  23  26
ATOM     26  C   UNL     1     -37.966 157.014   4.260  1.00  0.00    +0.043 A 
ATOM     27  C   UNL     1     -37.234 157.902   5.054  1.00  0.00    +0.028 A 
ATOM     28  C   UNL     1     -37.909 155.648   4.552  1.00  0.00    +0.040 A 
ATOM     29  C   UNL     1     -36.451 157.430   6.109  1.00  0.00    +0.023 A 
ATOM     30  C   UNL     1     -37.123 155.154   5.615  1.00  0.00    +0.076 A 
ATOM     31  C   UNL     1     -36.393 156.063   6.388  1.00  0.00    +0.053 A 
ATOM     32 Cl   UNL     1     -35.401 155.562   7.708  1.00  0.00    -0.084 Cl
BRANCH  30  33
ATOM     33  C   UNL     1     -37.084 153.677   5.898  1.00  0.00    +0.417 C 
ATOM     34  F   UNL     1     -37.531 153.361   7.145  1.00  0.00    -0.166 F 
ATOM     35  F   UNL     1     -35.830 153.142   5.819  1.00  0.00    -0.166 F 
ATOM     36  F   UNL     1     -37.836 152.950   5.025  1.00  0.00    -0.166 F 
ENDBRANCH  30  33
ENDBRANCH  23  26
ENDBRANCH   4  20
TORSDOF 6
ENDMDL
MODEL 7
REMARK VINA RESULT:   -10.566      4.933     11.660
REMARK INTER + INTRA:         -14.095
REMARK INTER:                 -12.981
REMARK INTRA:                  -1.114
REMARK UNBOUND:                 0.178
REMARK SMILES CNC(=O)c1cc(Oc2ccc(NC(=O)Nc3ccc(Cl)c(C(F)(F)F)c3)c(F)c2)ccn1
REMARK SMILES IDX 9 1 10 2 11 3 12 4 28 5 29 6 30 7 8 8 7 9 5 10 6 11 33 12
REMARK SMILES IDX 32 13 31 14 3 15 2 16 4 17 1 18 13 20 14 21 15 22 16 23
REMARK SMILES IDX 17 26 18 27 27 28 19 29 22 30 20 31 21 32 23 33 24 34 25 35
REMARK SMILES IDX 26 36
REMARK H PARENT 2 19 13 24 16 25
ROOT
ATOM      1  C   UNL     1     -34.748 154.027   6.179  1.00  0.00    +0.130 A 
ATOM      2  C   UNL     1     -34.117 154.952   5.346  1.00  0.00    +0.049 A 
ATOM      3  C   UNL     1     -34.825 156.051   4.848  1.00  0.00    +0.033 A 
ATOM      4  C   UNL     1     -36.172 156.222   5.170  1.00  0.00    +0.079 A 
ATOM      5  C   UNL     1     -36.792 155.261   5.982  1.00  0.00    +0.150 A 
ATOM      6  F   UNL     1     -38.094 155.400   6.284  1.00  0.00    -0.205 F 
ATOM      7  C   UNL     1     -36.100 154.166   6.486  1.00  0.00    +0.088 A 
ENDROOT
BRANCH   1   8
ATOM      8  O   UNL     1     -34.001 152.954   6.609  1.00  0.00    -0.457 OA
BRANCH   8   9
ATOM      9  C   UNL     1     -34.628 151.728   6.630  1.00  0.00    +0.131 A 
ATOM     10  C   UNL     1     -35.374 149.822   5.435  1.00  0.00    +0.131 A 
ATOM     11  C   UNL     1     -34.774 151.071   5.416  1.00  0.00    +0.081 A 
ATOM     12  N   UNL     1     -35.813 149.203   6.570  1.00  0.00    -0.251 NA
ATOM     13  C   UNL     1     -35.624 149.867   7.730  1.00  0.00    +0.116 A 
ATOM     14  C   UNL     1     -35.038 151.117   7.814  1.00  0.00    +0.067 A 
BRANCH  10  15
ATOM     15  C   UNL     1     -35.577 149.075   4.152  1.00  0.00    +0.269 C 
ATOM     16  N   UNL     1     -34.593 149.290   3.210  1.00  0.00    -0.354 N 
ATOM     17  O   UNL     1     -36.539 148.333   3.987  1.00  0.00    -0.268 OA
ATOM     18  C   UNL     1     -34.544 148.570   1.967  1.00  0.00    +0.143 C 
ATOM     19  H   UNL     1     -33.800 149.849   3.514  1.00  0.00    +0.163 HD
ENDBRANCH  10  15
ENDBRANCH   8   9
ENDBRANCH   1   8
BRANCH   4  20
ATOM     20  N   UNL     1     -36.975 157.289   4.712  1.00  0.00    -0.305 N 
ATOM     21  C   UNL     1     -37.788 157.312   3.591  1.00  0.00    +0.323 C 
ATOM     22  O   UNL     1     -37.867 156.410   2.769  1.00  0.00    -0.248 OA
ATOM     23  N   UNL     1     -38.499 158.501   3.537  1.00  0.00    -0.308 N 
ATOM     24  H   UNL     1     -36.812 158.170   5.181  1.00  0.00    +0.171 HD
ATOM     25  H   UNL     1     -38.514 159.041   4.389  1.00  0.00    +0.171 HD
BRANCH  23  26
ATOM     26  C   UNL     1     -39.354 158.944   2.507  1.00  0.00    +0.043 A 
ATOM     27  C   UNL     1     -40.726 158.748   2.688  1.00  0.00    +0.028 A 
ATOM     28  C   UNL     1     -38.913 159.579   1.343  1.00  0.00    +0.040 A 
ATOM     29  C   UNL     1     -41.637 159.166   1.716  1.00  0.00    +0.023 A 
ATOM     30  C   UNL     1     -39.820 160.009   0.350  1.00  0.00    +0.076 A 
ATOM     31  C   UNL     1     -41.187 159.792   0.550  1.00  0.00    +0.053 A 
ATOM     32 Cl   UNL     1     -42.377 160.278  -0.602  1.00  0.00    -0.084 Cl
BRANCH  30  33
ATOM     33  C   UNL     1     -39.309 160.687  -0.892  1.00  0.00    +0.417 C 
ATOM     34  F   UNL     1     -39.709 161.985  -0.993  1.00  0.00    -0.166 F 
ATOM     35  F   UNL     1     -39.727 160.091  -2.047  1.00  0.00    -0.166 F 
ATOM     36  F   UNL     1     -37.949 160.698  -0.969  1.00  0.00    -0.166 F 
ENDBRANCH  30  33
ENDBRANCH  23  26
ENDBRANCH   4  20
TORSDOF 6
ENDMDL
MODEL 8
REMARK VINA RESULT:   -10.565      5.088     11.579
REMARK INTER + INTRA:         -14.094
REMARK INTER:                 -13.835
REMARK INTRA:                  -0.259
REMARK UNBOUND:                 0.178
REMARK SMILES CNC(=O)c1cc(Oc2ccc(NC(=O)Nc3ccc(Cl)c(C(F)(F)F)c3)c(F)c2)ccn1
REMARK SMILES IDX 9 1 10 2 11 3 12 4 28 5 29 6 30 7 8 8 7 9 5 10 6 11 33 12
REMARK SMILES IDX 32 13 31 14 3 15 2 16 4 17 1 18 13 20 14 21 15 22 16 23
REMARK SMILES IDX 17 26 18 27 27 28 19 29 22 30 20 31 21 32 23 33 24 34 25 35
REMARK SMILES IDX 26 36
REMARK H PARENT 2 19 13 24 16 25
ROOT
ATOM      1  C   UNL     1     -38.922 157.744   2.846  1.00  0.00    +0.130 A 
ATOM      2  C   UNL     1     -37.862 157.987   1.972  1.00  0.00    +0.049 A 
ATOM      3  C   UNL     1     -38.021 158.864   0.893  1.00  0.00    +0.033 A 
ATOM      4  C   UNL     1     -39.248 159.491   0.676  1.00  0.00    +0.079 A 
ATOM      5  C   UNL     1     -40.309 159.206   1.548  1.00  0.00    +0.150 A 
ATOM      6  F   UNL     1     -41.503 159.787   1.340  1.00  0.00    -0.205 F 
ATOM      7  C   UNL     1     -40.163 158.339   2.625  1.00  0.00    +0.088 A 
ENDROOT
BRANCH   1   8
ATOM      8  O   UNL     1     -38.706 156.848   3.867  1.00  0.00    -0.457 OA
BRANCH   8   9
ATOM      9  C   UNL     1     -37.539 156.989   4.583  1.00  0.00    +0.131 A 
ATOM     10  C   UNL     1     -35.556 156.001   5.426  1.00  0.00    +0.131 A 
ATOM     11  C   UNL     1     -36.748 155.858   4.735  1.00  0.00    +0.081 A 
ATOM     12  N   UNL     1     -35.115 157.182   5.951  1.00  0.00    -0.251 NA
ATOM     13  C   UNL     1     -35.903 158.260   5.755  1.00  0.00    +0.116 A 
ATOM     14  C   UNL     1     -37.110 158.218   5.081  1.00  0.00    +0.067 A 
BRANCH  10  15
ATOM     15  C   UNL     1     -34.672 154.810   5.638  1.00  0.00    +0.269 C 
ATOM     16  N   UNL     1     -35.261 153.604   5.321  1.00  0.00    -0.354 N 
ATOM     17  O   UNL     1     -33.522 154.930   6.046  1.00  0.00    -0.268 OA
ATOM     18  C   UNL     1     -34.537 152.363   5.338  1.00  0.00    +0.143 C 
ATOM     19  H   UNL     1     -36.184 153.658   4.898  1.00  0.00    +0.163 HD
ENDBRANCH  10  15
ENDBRANCH   8   9
ENDBRANCH   1   8
BRANCH   4  20
ATOM     20  N   UNL     1     -39.513 160.383  -0.386  1.00  0.00    -0.305 N 
ATOM     21  C   UNL     1     -38.887 160.435  -1.620  1.00  0.00    +0.323 C 
ATOM     22  O   UNL     1     -37.930 159.746  -1.946  1.00  0.00    -0.248 OA
ATOM     23  N   UNL     1     -39.499 161.378  -2.431  1.00  0.00    -0.308 N 
ATOM     24  H   UNL     1     -40.125 161.152  -0.147  1.00  0.00    +0.171 HD
ATOM     25  H   UNL     1     -40.407 161.695  -2.123  1.00  0.00    +0.171 HD
BRANCH  23  26
ATOM     26  C   UNL     1     -39.100 161.795  -3.717  1.00  0.00    +0.043 A 
ATOM     27  C   UNL     1     -38.954 160.804  -4.693  1.00  0.00    +0.028 A 
ATOM     28  C   UNL     1     -38.865 163.126  -4.071  1.00  0.00    +0.040 A 
ATOM     29  C   UNL     1     -38.568 161.139  -5.992  1.00  0.00    +0.023 A 
ATOM     30  C   UNL     1     -38.475 163.483  -5.380  1.00  0.00    +0.076 A 
ATOM     31  C   UNL     1     -38.326 162.472  -6.335  1.00  0.00    +0.053 A 
ATOM     32 Cl   UNL     1     -37.852 162.801  -7.961  1.00  0.00    -0.084 Cl
BRANCH  30  33
ATOM     33  C   UNL     1     -38.229 164.927  -5.724  1.00  0.00    +0.417 C 
ATOM     34  F   UNL     1     -38.949 165.348  -6.800  1.00  0.00    -0.166 F 
ATOM     35  F   UNL     1     -36.927 165.197  -6.034  1.00  0.00    -0.166 F 
ATOM     36  F   UNL     1     -38.534 165.775  -4.702  1.00  0.00    -0.166 F 
ENDBRANCH  30  33
ENDBRANCH  23  26
ENDBRANCH   4  20
TORSDOF 6
ENDMDL
MODEL 9
REMARK VINA RESULT:   -10.460      6.444     12.865
REMARK INTER + INTRA:         -13.951
REMARK INTER:                 -13.344
REMARK INTRA:                  -0.606
REMARK UNBOUND:                 0.178
REMARK SMILES CNC(=O)c1cc(Oc2ccc(NC(=O)Nc3ccc(Cl)c(C(F)(F)F)c3)c(F)c2)ccn1
REMARK SMILES IDX 9 1 10 2 11 3 12 4 28 5 29 6 30 7 8 8 7 9 5 10 6 11 33 12
REMARK SMILES IDX 32 13 31 14 3 15 2 16 4 17 1 18 13 20 14 21 15 22 16 23
REMARK SMILES IDX 17 26 18 27 27 28 19 29 22 30 20 31 21 32 23 33 24 34 25 35
REMARK SMILES IDX 26 36
REMARK H PARENT 2 19 13 24 16 25
ROOT
ATOM      1  C   UNL     1     -39.046 161.467  -0.835  1.00  0.00    +0.130 A 
ATOM      2  C   UNL     1     -39.002 162.717  -1.454  1.00  0.00    +0.049 A 
ATOM      3  C   UNL     1     -38.978 162.814  -2.850  1.00  0.00    +0.033 A 
ATOM      4  C   UNL     1     -38.983 161.659  -3.633  1.00  0.00    +0.079 A 
ATOM      5  C   UNL     1     -38.993 160.414  -2.988  1.00  0.00    +0.150 A 
ATOM      6  F   UNL     1     -38.977 159.292  -3.727  1.00  0.00    -0.205 F 
ATOM      7  C   UNL     1     -39.020 160.304  -1.602  1.00  0.00    +0.088 A 
ENDROOT
BRANCH   1   8
ATOM      8  O   UNL     1     -39.037 161.443   0.540  1.00  0.00    -0.457 OA
BRANCH   8   9
ATOM      9  C   UNL     1     -39.471 160.286   1.146  1.00  0.00    +0.131 A 
ATOM     10  C   UNL     1     -38.961 158.393   2.479  1.00  0.00    +0.131 A 
ATOM     11  C   UNL     1     -38.525 159.542   1.839  1.00  0.00    +0.081 A 
ATOM     12  N   UNL     1     -40.257 157.963   2.477  1.00  0.00    -0.251 NA
ATOM     13  C   UNL     1     -41.146 158.733   1.814  1.00  0.00    +0.116 A 
ATOM     14  C   UNL     1     -40.808 159.895   1.144  1.00  0.00    +0.067 A 
BRANCH  10  15
ATOM     15  C   UNL     1     -37.981 157.539   3.224  1.00  0.00    +0.269 C 
ATOM     16  N   UNL     1     -38.556 156.694   4.151  1.00  0.00    -0.354 N 
ATOM     17  O   UNL     1     -36.777 157.599   2.998  1.00  0.00    -0.268 OA
ATOM     18  C   UNL     1     -37.796 155.712   4.875  1.00  0.00    +0.143 C 
ATOM     19  H   UNL     1     -39.572 156.674   4.164  1.00  0.00    +0.163 HD
ENDBRANCH  10  15
ENDBRANCH   8   9
ENDBRANCH   1   8
BRANCH   4  20
ATOM     20  N   UNL     1     -38.951 161.649  -5.045  1.00  0.00    -0.305 N 
ATOM     21  C   UNL     1     -38.106 162.368  -5.873  1.00  0.00    +0.323 C 
ATOM     22  O   UNL     1     -37.296 163.201  -5.491  1.00  0.00    -0.248 OA
ATOM     23  N   UNL     1     -38.310 162.008  -7.197  1.00  0.00    -0.308 N 
ATOM     24  H   UNL     1     -39.731 161.175  -5.480  1.00  0.00    +0.171 HD
ATOM     25  H   UNL     1     -38.830 161.155  -7.342  1.00  0.00    +0.171 HD
BRANCH  23  26
ATOM     26  C   UNL     1     -37.719 162.578  -8.343  1.00  0.00    +0.043 A 
ATOM     27  C   UNL     1     -36.966 161.730  -9.161  1.00  0.00    +0.028 A 
ATOM     28  C   UNL     1     -37.860 163.918  -8.713  1.00  0.00    +0.040 A 
ATOM     29  C   UNL     1     -36.355 162.219 -10.317  1.00  0.00    +0.023 A 
ATOM     30  C   UNL     1     -37.250 164.429  -9.879  1.00  0.00    +0.076 A 
ATOM     31  C   UNL     1     -36.493 163.562 -10.675  1.00  0.00    +0.053 A 
ATOM     32 Cl   UNL     1     -35.706 164.086 -12.118  1.00  0.00    -0.084 Cl
BRANCH  30  33
ATOM     33  C   UNL     1     -37.421 165.878 -10.244  1.00  0.00    +0.417 C 
ATOM     34  F   UNL     1     -37.997 166.055 -11.465  1.00  0.00    -0.166 F 
ATOM     35  F   UNL     1     -36.244 166.568 -10.297  1.00  0.00    -0.166 F 
ATOM     36  F   UNL     1     -38.194 166.561  -9.353  1.00  0.00    -0.166 F 
ENDBRANCH  30  33
ENDBRANCH  23  26
ENDBRANCH   4  20
TORSDOF 6
ENDMDL
MODEL 10
REMARK VINA RESULT:   -10.443      4.702      7.991
REMARK INTER + INTRA:         -13.929
REMARK INTER:                 -13.977
REMARK INTRA:                   0.048
REMARK UNBOUND:                 0.178
REMARK SMILES CNC(=O)c1cc(Oc2ccc(NC(=O)Nc3ccc(Cl)c(C(F)(F)F)c3)c(F)c2)ccn1
REMARK SMILES IDX 9 1 10 2 11 3 12 4 28 5 29 6 30 7 8 8 7 9 5 10 6 11 33 12
REMARK SMILES IDX 32 13 31 14 3 15 2 16 4 17 1 18 13 20 14 21 15 22 16 23
REMARK SMILES IDX 17 26 18 27 27 28 19 29 22 30 20 31 21 32 23 33 24 34 25 35
REMARK SMILES IDX 26 36
REMARK H PARENT 2 19 13 24 16 25
ROOT
ATOM      1  C   UNL     1     -37.071 162.363  -7.189  1.00  0.00    +0.130 A 
ATOM      2  C   UNL     1     -36.852 163.333  -6.211  1.00  0.00    +0.049 A 
ATOM      3  C   UNL     1     -37.574 163.305  -5.013  1.00  0.00    +0.033 A 
ATOM      4  C   UNL     1     -38.530 162.313  -4.794  1.00  0.00    +0.079 A 
ATOM      5  C   UNL     1     -38.756 161.368  -5.805  1.00  0.00    +0.150 A 
ATOM      6  F   UNL     1     -39.688 160.417  -5.619  1.00  0.00    -0.205 F 
ATOM      7  C   UNL     1     -38.043 161.383  -6.999  1.00  0.00    +0.088 A 
ENDROOT
BRANCH   1   8
ATOM      8  O   UNL     1     -36.349 162.468  -8.355  1.00  0.00    -0.457 OA
BRANCH   8   9
ATOM      9  C   UNL     1     -36.582 161.514  -9.320  1.00  0.00    +0.131 A 
ATOM     10  C   UNL     1     -36.772 159.220  -9.887  1.00  0.00    +0.131 A 
ATOM     11  C   UNL     1     -36.506 160.184  -8.928  1.00  0.00    +0.081 A 
ATOM     12  N   UNL     1     -37.112 159.501 -11.178  1.00  0.00    -0.251 NA
ATOM     13  C   UNL     1     -37.201 160.808 -11.507  1.00  0.00    +0.116 A 
ATOM     14  C   UNL     1     -36.954 161.842 -10.622  1.00  0.00    +0.067 A 
BRANCH  10  15
ATOM     15  C   UNL     1     -36.684 157.768  -9.526  1.00  0.00    +0.269 C 
ATOM     16  N   UNL     1     -37.868 157.076  -9.673  1.00  0.00    -0.354 N 
ATOM     17  O   UNL     1     -35.633 157.264  -9.147  1.00  0.00    -0.268 OA
ATOM     18  C   UNL     1     -37.956 155.652  -9.497  1.00  0.00    +0.143 C 
ATOM     19  H   UNL     1     -38.636 157.593 -10.092  1.00  0.00    +0.163 HD
ENDBRANCH  10  15
ENDBRANCH   8   9
ENDBRANCH   1   8
BRANCH   4  20
ATOM     20  N   UNL     1     -39.316 162.202  -3.626  1.00  0.00    -0.305 N 
ATOM     21  C   UNL     1     -39.261 161.208  -2.664  1.00  0.00    +0.323 C 
ATOM     22  O   UNL     1     -38.558 160.210  -2.732  1.00  0.00    -0.248 OA
ATOM     23  N   UNL     1     -40.117 161.507  -1.615  1.00  0.00    -0.308 N 
ATOM     24  H   UNL     1     -40.095 162.845  -3.581  1.00  0.00    +0.171 HD
ATOM     25  H   UNL     1     -40.449 162.459  -1.580  1.00  0.00    +0.171 HD
BRANCH  23  26
ATOM     26  C   UNL     1     -40.418 160.703  -0.496  1.00  0.00    +0.043 A 
ATOM     27  C   UNL     1     -41.762 160.601  -0.126  1.00  0.00    +0.028 A 
ATOM     28  C   UNL     1     -39.462 159.996   0.240  1.00  0.00    +0.040 A 
ATOM     29  C   UNL     1     -42.139 159.819   0.967  1.00  0.00    +0.023 A 
ATOM     30  C   UNL     1     -39.826 159.200   1.347  1.00  0.00    +0.076 A 
ATOM     31  C   UNL     1     -41.177 159.123   1.702  1.00  0.00    +0.053 A 
ATOM     32 Cl   UNL     1     -41.727 158.179   3.039  1.00  0.00    -0.084 Cl
BRANCH  30  33
ATOM     33  C   UNL     1     -38.770 158.455   2.117  1.00  0.00    +0.417 C 
ATOM     34  F   UNL     1     -38.646 158.885   3.403  1.00  0.00    -0.166 F 
ATOM     35  F   UNL     1     -37.522 158.570   1.577  1.00  0.00    -0.166 F 
ATOM     36  F   UNL     1     -39.007 157.115   2.181  1.00  0.00    -0.166 F 
ENDBRANCH  30  33
ENDBRANCH  23  26
ENDBRANCH   4  20
TORSDOF 6
ENDMDL
