MODEL 1
REMARK VINA RESULT:    -8.247      0.000      0.000
REMARK INTER + INTRA:         -11.265
REMARK INTER:                 -10.899
REMARK INTRA:                  -0.366
REMARK UNBOUND:                -0.366
REMARK SMILES O=[S@@]1CCc2nc(N3CCC(c4ncc(Cl)cn4)CC3)nc(NC3(CO)CCC3)c21
REMARK SMILES IDX 23 1 24 3 28 4 27 5 29 6 25 7 26 8 22 10 21 11 30 12 7 13
REMARK SMILES IDX 5 14 2 15 6 16 4 17 1 18 3 19 8 20 9 21 20 22 10 23 19 24
REMARK SMILES IDX 11 25 12 26 13 27 18 28 14 29 17 30 15 31 16 32
REMARK H PARENT 23 2 26 9
ROOT
ATOM      1  N   UNL     1     -38.600 163.466  -7.132  1.00  0.00    -0.361 N 
ATOM      2  H   UNL     1     -39.587 163.222  -7.231  1.00  0.00    +0.162 HD
ENDROOT
BRANCH   1   3
ATOM      3  C   UNL     1     -38.105 163.198  -5.797  1.00  0.00    +0.062 C 
ATOM      4  C   UNL     1     -38.207 161.543  -4.422  1.00  0.00    +0.005 C 
ATOM      5  C   UNL     1     -37.481 161.767  -5.763  1.00  0.00    +0.031 C 
ATOM      6  C   UNL     1     -39.205 162.637  -4.847  1.00  0.00    +0.031 C 
BRANCH   3   7
ATOM      7  C   UNL     1     -37.169 164.289  -5.262  1.00  0.00    +0.184 C 
BRANCH   7   8
ATOM      8  O   UNL     1     -37.881 165.483  -4.949  1.00  0.00    -0.394 OA
ATOM      9  H   UNL     1     -38.696 165.479  -5.495  1.00  0.00    +0.210 HD
ENDBRANCH   7   8
ENDBRANCH   3   7
ENDBRANCH   1   3
BRANCH   1  10
ATOM     10  C   UNL     1     -37.930 163.144  -8.334  1.00  0.00    +0.148 A 
ATOM     11  N   UNL     1     -37.670 161.852  -8.621  1.00  0.00    -0.194 NA
ATOM     12  C   UNL     1     -37.502 164.139  -9.174  1.00  0.00    +0.103 A 
ATOM     13  C   UNL     1     -37.005 161.544  -9.757  1.00  0.00    +0.227 A 
ATOM     14  C   UNL     1     -36.848 163.753 -10.316  1.00  0.00    +0.065 A 
ATOM     15  S   UNL     1     -37.645 165.898  -8.984  1.00  0.00    +0.059 S 
ATOM     16  N   UNL     1     -36.590 162.478 -10.633  1.00  0.00    -0.217 NA
ATOM     17  C   UNL     1     -36.512 164.887 -11.243  1.00  0.00    +0.072 C 
ATOM     18  O   UNL     1     -39.017 166.220  -9.500  1.00  0.00    -0.254 OA
ATOM     19  C   UNL     1     -36.455 166.135 -10.367  1.00  0.00    +0.117 C 
BRANCH  13  20
ATOM     20  N   UNL     1     -36.736 160.221 -10.026  1.00  0.00    -0.341 N 
ATOM     21  C   UNL     1     -36.817 159.244  -8.948  1.00  0.00    +0.120 C 
ATOM     22  C   UNL     1     -36.178 159.837 -11.316  1.00  0.00    +0.120 C 
ATOM     23  C   UNL     1     -35.821 158.112  -9.180  1.00  0.00    +0.033 C 
ATOM     24  C   UNL     1     -36.553 158.388 -11.618  1.00  0.00    +0.033 C 
ATOM     25  C   UNL     1     -36.042 157.424 -10.534  1.00  0.00    +0.061 C 
BRANCH  25  26
ATOM     26  C   UNL     1     -34.773 156.718 -10.959  1.00  0.00    +0.131 A 
ATOM     27  N   UNL     1     -33.728 157.469 -11.360  1.00  0.00    -0.240 NA
ATOM     28  N   UNL     1     -34.754 155.373 -10.877  1.00  0.00    -0.240 NA
ATOM     29  C   UNL     1     -32.602 156.807 -11.709  1.00  0.00    +0.135 A 
ATOM     30  C   UNL     1     -33.601 154.763 -11.239  1.00  0.00    +0.135 A 
ATOM     31  C   UNL     1     -32.483 155.439 -11.668  1.00  0.00    +0.077 A 
ATOM     32 Cl   UNL     1     -31.044 154.632 -12.115  1.00  0.00    -0.081 Cl
ENDBRANCH  25  26
ENDBRANCH  13  20
ENDBRANCH   1  10
TORSDOF 6
ENDMDL
MODEL 2
REMARK VINA RESULT:    -8.049      2.038      2.600
REMARK INTER + INTRA:         -11.004
REMARK INTER:                 -10.502
REMARK INTRA:                  -0.501
REMARK UNBOUND:                -0.366
REMARK SMILES O=[S@@]1CCc2nc(N3CCC(c4ncc(Cl)cn4)CC3)nc(NC3(CO)CCC3)c21
REMARK SMILES IDX 23 1 24 3 28 4 27 5 29 6 25 7 26 8 22 10 21 11 30 12 7 13
REMARK SMILES IDX 5 14 2 15 6 16 4 17 1 18 3 19 8 20 9 21 20 22 10 23 19 24
REMARK SMILES IDX 11 25 12 26 13 27 18 28 14 29 17 30 15 31 16 32
REMARK H PARENT 23 2 26 9
ROOT
ATOM      1  N   UNL     1     -38.609 163.392  -6.989  1.00  0.00    -0.361 N 
ATOM      2  H   UNL     1     -39.574 163.076  -7.092  1.00  0.00    +0.162 HD
ENDROOT
BRANCH   1   3
ATOM      3  C   UNL     1     -38.071 163.079  -5.680  1.00  0.00    +0.062 C 
ATOM      4  C   UNL     1     -38.099 161.366  -4.375  1.00  0.00    +0.005 C 
ATOM      5  C   UNL     1     -37.416 161.662  -5.723  1.00  0.00    +0.031 C 
ATOM      6  C   UNL     1     -39.132 162.453  -4.726  1.00  0.00    +0.031 C 
BRANCH   3   7
ATOM      7  C   UNL     1     -37.145 164.168  -5.124  1.00  0.00    +0.184 C 
BRANCH   7   8
ATOM      8  O   UNL     1     -37.846 165.387  -4.895  1.00  0.00    -0.394 OA
ATOM      9  H   UNL     1     -37.903 165.503  -3.923  1.00  0.00    +0.210 HD
ENDBRANCH   7   8
ENDBRANCH   3   7
ENDBRANCH   1   3
BRANCH   1  10
ATOM     10  C   UNL     1     -37.936 163.203  -8.217  1.00  0.00    +0.148 A 
ATOM     11  N   UNL     1     -37.589 161.956  -8.597  1.00  0.00    -0.194 NA
ATOM     12  C   UNL     1     -37.591 164.282  -8.989  1.00  0.00    +0.103 A 
ATOM     13  C   UNL     1     -36.921 161.776  -9.759  1.00  0.00    +0.227 A 
ATOM     14  C   UNL     1     -36.929 164.025 -10.161  1.00  0.00    +0.065 A 
ATOM     15  S   UNL     1     -37.854 166.009  -8.673  1.00  0.00    +0.059 S 
ATOM     16  N   UNL     1     -36.586 162.796 -10.570  1.00  0.00    -0.217 NA
ATOM     17  C   UNL     1     -36.686 165.242 -11.008  1.00  0.00    +0.072 C 
ATOM     18  O   UNL     1     -39.252 166.268  -9.151  1.00  0.00    -0.254 OA
ATOM     19  C   UNL     1     -36.704 166.427 -10.047  1.00  0.00    +0.117 C 
BRANCH  13  20
ATOM     20  N   UNL     1     -36.564 160.497 -10.123  1.00  0.00    -0.341 N 
ATOM     21  C   UNL     1     -36.267 160.211 -11.520  1.00  0.00    +0.120 C 
ATOM     22  C   UNL     1     -36.685 159.406  -9.165  1.00  0.00    +0.120 C 
ATOM     23  C   UNL     1     -36.646 158.773 -11.861  1.00  0.00    +0.033 C 
ATOM     24  C   UNL     1     -35.695 158.302  -9.531  1.00  0.00    +0.033 C 
ATOM     25  C   UNL     1     -35.932 157.763 -10.952  1.00  0.00    +0.061 C 
BRANCH  25  26
ATOM     26  C   UNL     1     -36.700 156.460 -10.939  1.00  0.00    +0.131 A 
ATOM     27  N   UNL     1     -38.013 156.488 -11.245  1.00  0.00    -0.240 NA
ATOM     28  N   UNL     1     -36.011 155.336 -10.654  1.00  0.00    -0.240 NA
ATOM     29  C   UNL     1     -38.662 155.302 -11.248  1.00  0.00    +0.135 A 
ATOM     30  C   UNL     1     -36.711 154.178 -10.673  1.00  0.00    +0.135 A 
ATOM     31  C   UNL     1     -38.053 154.103 -10.966  1.00  0.00    +0.077 A 
ATOM     32 Cl   UNL     1     -38.902 152.620 -10.979  1.00  0.00    -0.081 Cl
ENDBRANCH  25  26
ENDBRANCH  13  20
ENDBRANCH   1  10
TORSDOF 6
ENDMDL
MODEL 3
REMARK VINA RESULT:    -8.020     15.375     18.693
REMARK INTER + INTRA:         -10.966
REMARK INTER:                 -10.385
REMARK INTRA:                  -0.581
REMARK UNBOUND:                -0.366
REMARK SMILES O=[S@@]1CCc2nc(N3CCC(c4ncc(Cl)cn4)CC3)nc(NC3(CO)CCC3)c21
REMARK SMILES IDX 23 1 24 3 28 4 27 5 29 6 25 7 26 8 22 10 21 11 30 12 7 13
REMARK SMILES IDX 5 14 2 15 6 16 4 17 1 18 3 19 8 20 9 21 20 22 10 23 19 24
REMARK SMILES IDX 11 25 12 26 13 27 18 28 14 29 17 30 15 31 16 32
REMARK H PARENT 23 2 26 9
ROOT
ATOM      1  N   UNL     1     -34.833 148.406  -1.098  1.00  0.00    -0.361 N 
ATOM      2  H   UNL     1     -33.992 148.192  -1.636  1.00  0.00    +0.162 HD
ENDROOT
BRANCH   1   3
ATOM      3  C   UNL     1     -36.027 148.367  -1.918  1.00  0.00    +0.062 C 
ATOM      4  C   UNL     1     -37.723 147.052  -2.106  1.00  0.00    +0.005 C 
ATOM      5  C   UNL     1     -37.256 148.033  -1.014  1.00  0.00    +0.031 C 
ATOM      6  C   UNL     1     -36.259 146.977  -2.581  1.00  0.00    +0.031 C 
BRANCH   3   7
ATOM      7  C   UNL     1     -36.220 149.624  -2.777  1.00  0.00    +0.184 C 
BRANCH   7   8
ATOM      8  O   UNL     1     -35.581 150.758  -2.197  1.00  0.00    -0.394 OA
ATOM      9  H   UNL     1     -34.728 150.873  -2.666  1.00  0.00    +0.210 HD
ENDBRANCH   7   8
ENDBRANCH   3   7
ENDBRANCH   1   3
BRANCH   1  10
ATOM     10  C   UNL     1     -34.705 147.838   0.190  1.00  0.00    +0.148 A 
ATOM     11  N   UNL     1     -35.266 148.461   1.246  1.00  0.00    -0.194 NA
ATOM     12  C   UNL     1     -33.972 146.695   0.371  1.00  0.00    +0.103 A 
ATOM     13  C   UNL     1     -35.122 147.935   2.484  1.00  0.00    +0.227 A 
ATOM     14  C   UNL     1     -33.881 146.207   1.649  1.00  0.00    +0.065 A 
ATOM     15  S   UNL     1     -33.076 145.742  -0.829  1.00  0.00    +0.059 S 
ATOM     16  N   UNL     1     -34.440 146.798   2.714  1.00  0.00    -0.217 NA
ATOM     17  C   UNL     1     -33.162 144.893   1.754  1.00  0.00    +0.072 C 
ATOM     18  O   UNL     1     -34.109 144.839  -1.437  1.00  0.00    -0.254 OA
ATOM     19  C   UNL     1     -32.253 144.818   0.531  1.00  0.00    +0.117 C 
BRANCH  13  20
ATOM     20  N   UNL     1     -35.690 148.592   3.551  1.00  0.00    -0.341 N 
ATOM     21  C   UNL     1     -37.139 148.728   3.615  1.00  0.00    +0.120 C 
ATOM     22  C   UNL     1     -34.847 149.320   4.491  1.00  0.00    +0.120 C 
ATOM     23  C   UNL     1     -37.521 150.023   4.326  1.00  0.00    +0.033 C 
ATOM     24  C   UNL     1     -35.554 149.402   5.843  1.00  0.00    +0.033 C 
ATOM     25  C   UNL     1     -36.921 150.099   5.737  1.00  0.00    +0.061 C 
BRANCH  25  26
ATOM     26  C   UNL     1     -36.854 151.543   6.183  1.00  0.00    +0.131 A 
ATOM     27  N   UNL     1     -35.826 151.922   6.969  1.00  0.00    -0.240 NA
ATOM     28  N   UNL     1     -37.815 152.376   5.737  1.00  0.00    -0.240 NA
ATOM     29  C   UNL     1     -35.784 153.224   7.329  1.00  0.00    +0.135 A 
ATOM     30  C   UNL     1     -37.723 153.668   6.129  1.00  0.00    +0.135 A 
ATOM     31  C   UNL     1     -36.718 154.151   6.934  1.00  0.00    +0.077 A 
ATOM     32 Cl   UNL     1     -36.636 155.792   7.406  1.00  0.00    -0.081 Cl
ENDBRANCH  25  26
ENDBRANCH  13  20
ENDBRANCH   1  10
TORSDOF 6
ENDMDL
MODEL 4
REMARK VINA RESULT:    -7.919     16.208     18.523
REMARK INTER + INTRA:         -10.832
REMARK INTER:                  -9.586
REMARK INTRA:                  -1.246
REMARK UNBOUND:                -0.366
REMARK SMILES O=[S@@]1CCc2nc(N3CCC(c4ncc(Cl)cn4)CC3)nc(NC3(CO)CCC3)c21
REMARK SMILES IDX 23 1 24 3 28 4 27 5 29 6 25 7 26 8 22 10 21 11 30 12 7 13
REMARK SMILES IDX 5 14 2 15 6 16 4 17 1 18 3 19 8 20 9 21 20 22 10 23 19 24
REMARK SMILES IDX 11 25 12 26 13 27 18 28 14 29 17 30 15 31 16 32
REMARK H PARENT 23 2 26 9
ROOT
ATOM      1  N   UNL     1     -35.571 146.455   0.669  1.00  0.00    -0.361 N 
ATOM      2  H   UNL     1     -35.775 145.482   0.436  1.00  0.00    +0.162 HD
ENDROOT
BRANCH   1   3
ATOM      3  C   UNL     1     -34.476 146.985  -0.119  1.00  0.00    +0.062 C 
ATOM      4  C   UNL     1     -32.535 146.276  -0.726  1.00  0.00    +0.005 C 
ATOM      5  C   UNL     1     -33.975 145.880  -1.103  1.00  0.00    +0.031 C 
ATOM      6  C   UNL     1     -33.097 146.841   0.592  1.00  0.00    +0.031 C 
BRANCH   3   7
ATOM      7  C   UNL     1     -34.805 148.316  -0.806  1.00  0.00    +0.184 C 
BRANCH   7   8
ATOM      8  O   UNL     1     -35.052 148.140  -2.198  1.00  0.00    -0.394 OA
ATOM      9  H   UNL     1     -35.250 149.028  -2.565  1.00  0.00    +0.210 HD
ENDBRANCH   7   8
ENDBRANCH   3   7
ENDBRANCH   1   3
BRANCH   1  10
ATOM     10  C   UNL     1     -36.788 147.123   0.933  1.00  0.00    +0.148 A 
ATOM     11  N   UNL     1     -36.874 147.942   2.001  1.00  0.00    -0.194 NA
ATOM     12  C   UNL     1     -37.885 146.898   0.143  1.00  0.00    +0.103 A 
ATOM     13  C   UNL     1     -38.046 148.561   2.272  1.00  0.00    +0.227 A 
ATOM     14  C   UNL     1     -39.035 147.571   0.466  1.00  0.00    +0.065 A 
ATOM     15  S   UNL     1     -38.051 145.815  -1.254  1.00  0.00    +0.059 S 
ATOM     16  N   UNL     1     -39.145 148.402   1.511  1.00  0.00    -0.217 NA
ATOM     17  C   UNL     1     -40.160 147.366  -0.509  1.00  0.00    +0.072 C 
ATOM     18  O   UNL     1     -37.532 146.616  -2.412  1.00  0.00    -0.254 OA
ATOM     19  C   UNL     1     -39.877 146.033  -1.194  1.00  0.00    +0.117 C 
BRANCH  13  20
ATOM     20  N   UNL     1     -38.119 149.383   3.374  1.00  0.00    -0.341 N 
ATOM     21  C   UNL     1     -39.216 150.335   3.482  1.00  0.00    +0.120 C 
ATOM     22  C   UNL     1     -37.006 149.445   4.312  1.00  0.00    +0.120 C 
ATOM     23  C   UNL     1     -38.768 151.580   4.242  1.00  0.00    +0.033 C 
ATOM     24  C   UNL     1     -37.525 149.868   5.684  1.00  0.00    +0.033 C 
ATOM     25  C   UNL     1     -38.229 151.235   5.637  1.00  0.00    +0.061 C 
BRANCH  25  26
ATOM     26  C   UNL     1     -37.331 152.350   6.124  1.00  0.00    +0.131 A 
ATOM     27  N   UNL     1     -36.358 152.047   7.008  1.00  0.00    -0.240 NA
ATOM     28  N   UNL     1     -37.537 153.581   5.616  1.00  0.00    -0.240 NA
ATOM     29  C   UNL     1     -35.559 153.063   7.404  1.00  0.00    +0.135 A 
ATOM     30  C   UNL     1     -36.707 154.559   6.047  1.00  0.00    +0.135 A 
ATOM     31  C   UNL     1     -35.690 154.353   6.950  1.00  0.00    +0.077 A 
ATOM     32 Cl   UNL     1     -34.662 155.616   7.470  1.00  0.00    -0.081 Cl
ENDBRANCH  25  26
ENDBRANCH  13  20
ENDBRANCH   1  10
TORSDOF 6
ENDMDL
MODEL 5
REMARK VINA RESULT:    -7.870     15.782     18.732
REMARK INTER + INTRA:         -10.767
REMARK INTER:                  -9.568
REMARK INTRA:                  -1.199
REMARK UNBOUND:                -0.366
REMARK SMILES O=[S@@]1CCc2nc(N3CCC(c4ncc(Cl)cn4)CC3)nc(NC3(CO)CCC3)c21
REMARK SMILES IDX 23 1 24 3 28 4 27 5 29 6 25 7 26 8 22 10 21 11 30 12 7 13
REMARK SMILES IDX 5 14 2 15 6 16 4 17 1 18 3 19 8 20 9 21 20 22 10 23 19 24
REMARK SMILES IDX 11 25 12 26 13 27 18 28 14 29 17 30 15 31 16 32
REMARK H PARENT 23 2 26 9
ROOT
ATOM      1  N   UNL     1     -35.814 147.111   2.315  1.00  0.00    -0.361 N 
ATOM      2  H   UNL     1     -36.115 146.157   2.106  1.00  0.00    +0.162 HD
ENDROOT
BRANCH   1   3
ATOM      3  C   UNL     1     -34.985 147.662   1.263  1.00  0.00    +0.062 C 
ATOM      4  C   UNL     1     -35.190 147.961  -0.860  1.00  0.00    +0.005 C 
ATOM      5  C   UNL     1     -35.853 148.606   0.372  1.00  0.00    +0.031 C 
ATOM      6  C   UNL     1     -34.891 146.731   0.017  1.00  0.00    +0.031 C 
BRANCH   3   7
ATOM      7  C   UNL     1     -33.697 148.317   1.780  1.00  0.00    +0.184 C 
BRANCH   7   8
ATOM      8  O   UNL     1     -33.917 149.670   2.168  1.00  0.00    -0.394 OA
ATOM      9  H   UNL     1     -33.064 150.007   2.515  1.00  0.00    +0.210 HD
ENDBRANCH   7   8
ENDBRANCH   3   7
ENDBRANCH   1   3
BRANCH   1  10
ATOM     10  C   UNL     1     -36.869 147.788   2.966  1.00  0.00    +0.148 A 
ATOM     11  N   UNL     1     -36.600 148.895   3.687  1.00  0.00    -0.194 NA
ATOM     12  C   UNL     1     -38.146 147.293   2.910  1.00  0.00    +0.103 A 
ATOM     13  C   UNL     1     -37.604 149.530   4.334  1.00  0.00    +0.227 A 
ATOM     14  C   UNL     1     -39.118 147.996   3.575  1.00  0.00    +0.065 A 
ATOM     15  S   UNL     1     -38.739 145.825   2.108  1.00  0.00    +0.059 S 
ATOM     16  N   UNL     1     -38.881 149.106   4.286  1.00  0.00    -0.217 NA
ATOM     17  C   UNL     1     -40.507 147.461   3.374  1.00  0.00    +0.072 C 
ATOM     18  O   UNL     1     -38.968 146.242   0.685  1.00  0.00    -0.254 OA
ATOM     19  C   UNL     1     -40.337 145.990   3.005  1.00  0.00    +0.117 C 
BRANCH  13  20
ATOM     20  N   UNL     1     -37.307 150.651   5.075  1.00  0.00    -0.341 N 
ATOM     21  C   UNL     1     -38.339 151.657   5.290  1.00  0.00    +0.120 C 
ATOM     22  C   UNL     1     -35.930 150.925   5.462  1.00  0.00    +0.120 C 
ATOM     23  C   UNL     1     -37.713 153.044   5.408  1.00  0.00    +0.033 C 
ATOM     24  C   UNL     1     -35.921 151.778   6.729  1.00  0.00    +0.033 C 
ATOM     25  C   UNL     1     -36.671 153.106   6.533  1.00  0.00    +0.061 C 
BRANCH  25  26
ATOM     26  C   UNL     1     -35.723 154.258   6.284  1.00  0.00    +0.131 A 
ATOM     27  N   UNL     1     -34.572 154.302   6.986  1.00  0.00    -0.240 NA
ATOM     28  N   UNL     1     -36.074 155.160   5.345  1.00  0.00    -0.240 NA
ATOM     29  C   UNL     1     -33.738 155.332   6.720  1.00  0.00    +0.135 A 
ATOM     30  C   UNL     1     -35.200 156.168   5.121  1.00  0.00    +0.135 A 
ATOM     31  C   UNL     1     -34.005 156.305   5.788  1.00  0.00    +0.077 A 
ATOM     32 Cl   UNL     1     -32.928 157.594   5.475  1.00  0.00    -0.081 Cl
ENDBRANCH  25  26
ENDBRANCH  13  20
ENDBRANCH   1  10
TORSDOF 6
ENDMDL
MODEL 6
REMARK VINA RESULT:    -7.638     16.370     18.734
REMARK INTER + INTRA:         -10.460
REMARK INTER:                  -9.543
REMARK INTRA:                  -0.917
REMARK UNBOUND:                -0.366
REMARK SMILES O=[S@@]1CCc2nc(N3CCC(c4ncc(Cl)cn4)CC3)nc(NC3(CO)CCC3)c21
REMARK SMILES IDX 23 1 24 3 28 4 27 5 29 6 25 7 26 8 22 10 21 11 30 12 7 13
REMARK SMILES IDX 5 14 2 15 6 16 4 17 1 18 3 19 8 20 9 21 20 22 10 23 19 24
REMARK SMILES IDX 11 25 12 26 13 27 18 28 14 29 17 30 15 31 16 32
REMARK H PARENT 23 2 26 9
ROOT
ATOM      1  N   UNL     1     -34.382 151.559   7.182  1.00  0.00    -0.361 N 
ATOM      2  H   UNL     1     -33.362 151.555   7.227  1.00  0.00    +0.162 HD
ENDROOT
BRANCH   1   3
ATOM      3  C   UNL     1     -34.889 152.684   6.423  1.00  0.00    +0.062 C 
ATOM      4  C   UNL     1     -36.580 154.008   6.577  1.00  0.00    +0.005 C 
ATOM      5  C   UNL     1     -35.298 153.823   7.410  1.00  0.00    +0.031 C 
ATOM      6  C   UNL     1     -36.406 152.556   6.094  1.00  0.00    +0.031 C 
BRANCH   3   7
ATOM      7  C   UNL     1     -33.940 153.146   5.310  1.00  0.00    +0.184 C 
BRANCH   7   8
ATOM      8  O   UNL     1     -33.728 152.122   4.342  1.00  0.00    -0.394 OA
ATOM      9  H   UNL     1     -33.934 151.270   4.782  1.00  0.00    +0.210 HD
ENDBRANCH   7   8
ENDBRANCH   3   7
ENDBRANCH   1   3
BRANCH   1  10
ATOM     10  C   UNL     1     -34.836 150.225   7.073  1.00  0.00    +0.148 A 
ATOM     11  N   UNL     1     -35.095 149.713   5.853  1.00  0.00    -0.194 NA
ATOM     12  C   UNL     1     -35.063 149.478   8.199  1.00  0.00    +0.103 A 
ATOM     13  C   UNL     1     -35.556 148.446   5.747  1.00  0.00    +0.227 A 
ATOM     14  C   UNL     1     -35.515 148.196   8.017  1.00  0.00    +0.065 A 
ATOM     15  S   UNL     1     -34.883 149.944   9.902  1.00  0.00    +0.059 S 
ATOM     16  N   UNL     1     -35.766 147.657   6.817  1.00  0.00    -0.217 NA
ATOM     17  C   UNL     1     -35.630 147.401   9.287  1.00  0.00    +0.072 C 
ATOM     18  O   UNL     1     -33.428 149.726  10.198  1.00  0.00    -0.254 OA
ATOM     19  C   UNL     1     -35.791 148.426  10.405  1.00  0.00    +0.117 C 
BRANCH  13  20
ATOM     20  N   UNL     1     -35.828 147.945   4.494  1.00  0.00    -0.341 N 
ATOM     21  C   UNL     1     -34.991 146.881   3.955  1.00  0.00    +0.120 C 
ATOM     22  C   UNL     1     -36.803 148.609   3.639  1.00  0.00    +0.120 C 
ATOM     23  C   UNL     1     -34.907 146.988   2.435  1.00  0.00    +0.033 C 
ATOM     24  C   UNL     1     -37.384 147.596   2.654  1.00  0.00    +0.033 C 
ATOM     25  C   UNL     1     -36.295 146.950   1.782  1.00  0.00    +0.061 C 
BRANCH  25  26
ATOM     26  C   UNL     1     -36.227 147.579   0.408  1.00  0.00    +0.131 A 
ATOM     27  N   UNL     1     -36.769 146.910  -0.629  1.00  0.00    -0.240 NA
ATOM     28  N   UNL     1     -35.654 148.796   0.309  1.00  0.00    -0.240 NA
ATOM     29  C   UNL     1     -36.712 147.513  -1.838  1.00  0.00    +0.135 A 
ATOM     30  C   UNL     1     -35.625 149.351  -0.924  1.00  0.00    +0.135 A 
ATOM     31  C   UNL     1     -36.145 148.747  -2.045  1.00  0.00    +0.077 A 
ATOM     32 Cl   UNL     1     -36.090 149.482  -3.587  1.00  0.00    -0.081 Cl
ENDBRANCH  25  26
ENDBRANCH  13  20
ENDBRANCH   1  10
TORSDOF 6
ENDMDL
MODEL 7
REMARK VINA RESULT:    -7.506      4.219      7.980
REMARK INTER + INTRA:         -10.285
REMARK INTER:                  -9.458
REMARK INTRA:                  -0.827
REMARK UNBOUND:                -0.366
REMARK SMILES O=[S@@]1CCc2nc(N3CCC(c4ncc(Cl)cn4)CC3)nc(NC3(CO)CCC3)c21
REMARK SMILES IDX 23 1 24 3 28 4 27 5 29 6 25 7 26 8 22 10 21 11 30 12 7 13
REMARK SMILES IDX 5 14 2 15 6 16 4 17 1 18 3 19 8 20 9 21 20 22 10 23 19 24
REMARK SMILES IDX 11 25 12 26 13 27 18 28 14 29 17 30 15 31 16 32
REMARK H PARENT 23 2 26 9
ROOT
ATOM      1  N   UNL     1     -36.214 161.900  -9.521  1.00  0.00    -0.361 N 
ATOM      2  H   UNL     1     -35.405 161.586  -8.983  1.00  0.00    +0.162 HD
ENDROOT
BRANCH   1   3
ATOM      3  C   UNL     1     -36.849 160.809 -10.233  1.00  0.00    +0.062 C 
ATOM      4  C   UNL     1     -37.816 160.574 -12.143  1.00  0.00    +0.005 C 
ATOM      5  C   UNL     1     -36.355 160.810 -11.714  1.00  0.00    +0.031 C 
ATOM      6  C   UNL     1     -38.249 161.192 -10.800  1.00  0.00    +0.031 C 
BRANCH   3   7
ATOM      7  C   UNL     1     -36.694 159.452  -9.534  1.00  0.00    +0.184 C 
BRANCH   7   8
ATOM      8  O   UNL     1     -35.597 158.712 -10.063  1.00  0.00    -0.394 OA
ATOM      9  H   UNL     1     -35.929 158.240 -10.856  1.00  0.00    +0.210 HD
ENDBRANCH   7   8
ENDBRANCH   3   7
ENDBRANCH   1   3
BRANCH   1  10
ATOM     10  C   UNL     1     -36.887 162.901  -8.786  1.00  0.00    +0.148 A 
ATOM     11  N   UNL     1     -37.393 162.603  -7.572  1.00  0.00    -0.194 NA
ATOM     12  C   UNL     1     -37.072 164.148  -9.325  1.00  0.00    +0.103 A 
ATOM     13  C   UNL     1     -38.062 163.552  -6.878  1.00  0.00    +0.227 A 
ATOM     14  C   UNL     1     -37.745 165.065  -8.561  1.00  0.00    +0.065 A 
ATOM     15  S   UNL     1     -36.583 164.757 -10.919  1.00  0.00    +0.059 S 
ATOM     16  N   UNL     1     -38.244 164.801  -7.346  1.00  0.00    -0.217 NA
ATOM     17  C   UNL     1     -37.808 166.439  -9.165  1.00  0.00    +0.072 C 
ATOM     18  O   UNL     1     -35.155 165.181 -10.736  1.00  0.00    -0.254 OA
ATOM     19  C   UNL     1     -37.645 166.239 -10.669  1.00  0.00    +0.117 C 
BRANCH  13  20
ATOM     20  N   UNL     1     -38.583 163.225  -5.647  1.00  0.00    -0.341 N 
ATOM     21  C   UNL     1     -38.584 164.223  -4.586  1.00  0.00    +0.120 C 
ATOM     22  C   UNL     1     -38.934 161.843  -5.348  1.00  0.00    +0.120 C 
ATOM     23  C   UNL     1     -38.448 163.551  -3.223  1.00  0.00    +0.033 C 
ATOM     24  C   UNL     1     -40.016 161.819  -4.270  1.00  0.00    +0.033 C 
ATOM     25  C   UNL     1     -39.559 162.521  -2.980  1.00  0.00    +0.061 C 
BRANCH  25  26
ATOM     26  C   UNL     1     -39.113 161.531  -1.927  1.00  0.00    +0.131 A 
ATOM     27  N   UNL     1     -39.200 161.893  -0.631  1.00  0.00    -0.240 NA
ATOM     28  N   UNL     1     -38.684 160.325  -2.351  1.00  0.00    -0.240 NA
ATOM     29  C   UNL     1     -38.815 160.974   0.283  1.00  0.00    +0.135 A 
ATOM     30  C   UNL     1     -38.313 159.446  -1.392  1.00  0.00    +0.135 A 
ATOM     31  C   UNL     1     -38.358 159.721  -0.045  1.00  0.00    +0.077 A 
ATOM     32 Cl   UNL     1     -37.880 158.582   1.136  1.00  0.00    -0.081 Cl
ENDBRANCH  25  26
ENDBRANCH  13  20
ENDBRANCH   1  10
TORSDOF 6
ENDMDL
MODEL 8
REMARK VINA RESULT:    -7.444     16.544     19.616
REMARK INTER + INTRA:         -10.204
REMARK INTER:                  -9.647
REMARK INTRA:                  -0.557
REMARK UNBOUND:                -0.366
REMARK SMILES O=[S@@]1CCc2nc(N3CCC(c4ncc(Cl)cn4)CC3)nc(NC3(CO)CCC3)c21
REMARK SMILES IDX 23 1 24 3 28 4 27 5 29 6 25 7 26 8 22 10 21 11 30 12 7 13
REMARK SMILES IDX 5 14 2 15 6 16 4 17 1 18 3 19 8 20 9 21 20 22 10 23 19 24
REMARK SMILES IDX 11 25 12 26 13 27 18 28 14 29 17 30 15 31 16 32
REMARK H PARENT 23 2 26 9
ROOT
ATOM      1  N   UNL     1     -34.781 148.370  -0.960  1.00  0.00    -0.361 N 
ATOM      2  H   UNL     1     -33.950 148.349  -1.552  1.00  0.00    +0.162 HD
ENDROOT
BRANCH   1   3
ATOM      3  C   UNL     1     -36.003 148.327  -1.737  1.00  0.00    +0.062 C 
ATOM      4  C   UNL     1     -37.736 147.050  -1.811  1.00  0.00    +0.005 C 
ATOM      5  C   UNL     1     -37.208 148.063  -0.778  1.00  0.00    +0.031 C 
ATOM      6  C   UNL     1     -36.292 146.917  -2.332  1.00  0.00    +0.031 C 
BRANCH   3   7
ATOM      7  C   UNL     1     -36.195 149.552  -2.641  1.00  0.00    +0.184 C 
BRANCH   7   8
ATOM      8  O   UNL     1     -35.621 150.723  -2.067  1.00  0.00    -0.394 OA
ATOM      9  H   UNL     1     -35.727 150.643  -1.095  1.00  0.00    +0.210 HD
ENDBRANCH   7   8
ENDBRANCH   3   7
ENDBRANCH   1   3
BRANCH   1  10
ATOM     10  C   UNL     1     -34.526 147.614   0.207  1.00  0.00    +0.148 A 
ATOM     11  N   UNL     1     -35.138 147.952   1.360  1.00  0.00    -0.194 NA
ATOM     12  C   UNL     1     -33.624 146.583   0.179  1.00  0.00    +0.103 A 
ATOM     13  C   UNL     1     -34.874 147.248   2.485  1.00  0.00    +0.227 A 
ATOM     14  C   UNL     1     -33.417 145.902   1.351  1.00  0.00    +0.065 A 
ATOM     15  S   UNL     1     -32.636 146.002  -1.177  1.00  0.00    +0.059 S 
ATOM     16  N   UNL     1     -34.022 146.207   2.507  1.00  0.00    -0.217 NA
ATOM     17  C   UNL     1     -32.505 144.716   1.218  1.00  0.00    +0.072 C 
ATOM     18  O   UNL     1     -33.541 145.069  -1.927  1.00  0.00    -0.254 OA
ATOM     19  C   UNL     1     -31.638 144.994  -0.005  1.00  0.00    +0.117 C 
BRANCH  13  20
ATOM     20  N   UNL     1     -35.498 147.616   3.655  1.00  0.00    -0.341 N 
ATOM     21  C   UNL     1     -36.345 148.801   3.669  1.00  0.00    +0.120 C 
ATOM     22  C   UNL     1     -35.152 146.953   4.906  1.00  0.00    +0.120 C 
ATOM     23  C   UNL     1     -36.307 149.466   5.042  1.00  0.00    +0.033 C 
ATOM     24  C   UNL     1     -36.333 147.043   5.869  1.00  0.00    +0.033 C 
ATOM     25  C   UNL     1     -36.731 148.501   6.157  1.00  0.00    +0.061 C 
BRANCH  25  26
ATOM     26  C   UNL     1     -36.185 148.983   7.482  1.00  0.00    +0.131 A 
ATOM     27  N   UNL     1     -35.564 150.180   7.521  1.00  0.00    -0.240 NA
ATOM     28  N   UNL     1     -36.383 148.196   8.559  1.00  0.00    -0.240 NA
ATOM     29  C   UNL     1     -35.110 150.590   8.726  1.00  0.00    +0.135 A 
ATOM     30  C   UNL     1     -35.908 148.658   9.739  1.00  0.00    +0.135 A 
ATOM     31  C   UNL     1     -35.256 149.861   9.881  1.00  0.00    +0.077 A 
ATOM     32 Cl   UNL     1     -34.671 150.409  11.391  1.00  0.00    -0.081 Cl
ENDBRANCH  25  26
ENDBRANCH  13  20
ENDBRANCH   1  10
TORSDOF 6
ENDMDL
MODEL 9
REMARK VINA RESULT:    -7.419      2.123      4.234
REMARK INTER + INTRA:         -10.170
REMARK INTER:                  -9.032
REMARK INTRA:                  -1.138
REMARK UNBOUND:                -0.366
REMARK SMILES O=[S@@]1CCc2nc(N3CCC(c4ncc(Cl)cn4)CC3)nc(NC3(CO)CCC3)c21
REMARK SMILES IDX 23 1 24 3 28 4 27 5 29 6 25 7 26 8 22 10 21 11 30 12 7 13
REMARK SMILES IDX 5 14 2 15 6 16 4 17 1 18 3 19 8 20 9 21 20 22 10 23 19 24
REMARK SMILES IDX 11 25 12 26 13 27 18 28 14 29 17 30 15 31 16 32
REMARK H PARENT 23 2 26 9
ROOT
ATOM      1  N   UNL     1     -38.224 164.368  -9.732  1.00  0.00    -0.361 N 
ATOM      2  H   UNL     1     -39.012 164.800  -9.247  1.00  0.00    +0.162 HD
ENDROOT
BRANCH   1   3
ATOM      3  C   UNL     1     -37.308 165.356 -10.265  1.00  0.00    +0.062 C 
ATOM      4  C   UNL     1     -35.738 165.360 -11.740  1.00  0.00    +0.005 C 
ATOM      5  C   UNL     1     -37.270 165.229 -11.822  1.00  0.00    +0.031 C 
ATOM      6  C   UNL     1     -35.831 164.860 -10.286  1.00  0.00    +0.031 C 
BRANCH   3   7
ATOM      7  C   UNL     1     -37.590 166.781  -9.772  1.00  0.00    +0.184 C 
BRANCH   7   8
ATOM      8  O   UNL     1     -37.064 166.996  -8.465  1.00  0.00    -0.394 OA
ATOM      9  H   UNL     1     -36.108 166.781  -8.505  1.00  0.00    +0.210 HD
ENDBRANCH   7   8
ENDBRANCH   3   7
ENDBRANCH   1   3
BRANCH   1  10
ATOM     10  C   UNL     1     -37.851 163.195  -9.038  1.00  0.00    +0.148 A 
ATOM     11  N   UNL     1     -37.429 162.120  -9.734  1.00  0.00    -0.194 NA
ATOM     12  C   UNL     1     -37.968 163.133  -7.674  1.00  0.00    +0.103 A 
ATOM     13  C   UNL     1     -37.098 160.987  -9.074  1.00  0.00    +0.227 A 
ATOM     14  C   UNL     1     -37.600 161.959  -7.068  1.00  0.00    +0.065 A 
ATOM     15  S   UNL     1     -38.570 164.367  -6.548  1.00  0.00    +0.059 S 
ATOM     16  N   UNL     1     -37.164 160.882  -7.734  1.00  0.00    -0.217 NA
ATOM     17  C   UNL     1     -37.645 162.004  -5.567  1.00  0.00    +0.072 C 
ATOM     18  O   UNL     1     -37.381 165.245  -6.285  1.00  0.00    -0.254 OA
ATOM     19  C   UNL     1     -38.641 163.103  -5.214  1.00  0.00    +0.117 C 
BRANCH  13  20
ATOM     20  N   UNL     1     -36.683 159.896  -9.803  1.00  0.00    -0.341 N 
ATOM     21  C   UNL     1     -37.011 159.819 -11.220  1.00  0.00    +0.120 C 
ATOM     22  C   UNL     1     -36.109 158.742  -9.124  1.00  0.00    +0.120 C 
ATOM     23  C   UNL     1     -37.184 158.365 -11.648  1.00  0.00    +0.033 C 
ATOM     24  C   UNL     1     -35.188 157.996 -10.088  1.00  0.00    +0.033 C 
ATOM     25  C   UNL     1     -35.932 157.529 -11.350  1.00  0.00    +0.061 C 
BRANCH  25  26
ATOM     26  C   UNL     1     -36.305 156.065 -11.275  1.00  0.00    +0.131 A 
ATOM     27  N   UNL     1     -35.324 155.165 -11.062  1.00  0.00    -0.240 NA
ATOM     28  N   UNL     1     -37.611 155.750 -11.393  1.00  0.00    -0.240 NA
ATOM     29  C   UNL     1     -35.697 153.868 -10.976  1.00  0.00    +0.135 A 
ATOM     30  C   UNL     1     -37.926 154.437 -11.299  1.00  0.00    +0.135 A 
ATOM     31  C   UNL     1     -36.998 153.443 -11.089  1.00  0.00    +0.077 A 
ATOM     32 Cl   UNL     1     -37.437 151.795 -10.975  1.00  0.00    -0.081 Cl
ENDBRANCH  25  26
ENDBRANCH  13  20
ENDBRANCH   1  10
TORSDOF 6
ENDMDL
MODEL 10
REMARK VINA RESULT:    -7.358     15.622     19.005
REMARK INTER + INTRA:         -10.090
REMARK INTER:                  -9.339
REMARK INTRA:                  -0.750
REMARK UNBOUND:                -0.366
REMARK SMILES O=[S@@]1CCc2nc(N3CCC(c4ncc(Cl)cn4)CC3)nc(NC3(CO)CCC3)c21
REMARK SMILES IDX 23 1 24 3 28 4 27 5 29 6 25 7 26 8 22 10 21 11 30 12 7 13
REMARK SMILES IDX 5 14 2 15 6 16 4 17 1 18 3 19 8 20 9 21 20 22 10 23 19 24
REMARK SMILES IDX 11 25 12 26 13 27 18 28 14 29 17 30 15 31 16 32
REMARK H PARENT 23 2 26 9
ROOT
ATOM      1  N   UNL     1     -36.834 147.248   0.124  1.00  0.00    -0.361 N 
ATOM      2  H   UNL     1     -37.775 147.598  -0.065  1.00  0.00    +0.162 HD
ENDROOT
BRANCH   1   3
ATOM      3  C   UNL     1     -35.871 147.726  -0.847  1.00  0.00    +0.062 C 
ATOM      4  C   UNL     1     -33.975 147.036  -1.602  1.00  0.00    +0.005 C 
ATOM      5  C   UNL     1     -35.424 146.534  -1.752  1.00  0.00    +0.031 C 
ATOM      6  C   UNL     1     -34.412 147.731  -0.299  1.00  0.00    +0.031 C 
BRANCH   3   7
ATOM      7  C   UNL     1     -36.355 148.949  -1.637  1.00  0.00    +0.184 C 
BRANCH   7   8
ATOM      8  O   UNL     1     -35.644 150.127  -1.268  1.00  0.00    -0.394 OA
ATOM      9  H   UNL     1     -35.047 149.878  -0.530  1.00  0.00    +0.210 HD
ENDBRANCH   7   8
ENDBRANCH   3   7
ENDBRANCH   1   3
BRANCH   1  10
ATOM     10  C   UNL     1     -36.637 147.209   1.523  1.00  0.00    +0.148 A 
ATOM     11  N   UNL     1     -36.989 148.276   2.270  1.00  0.00    -0.194 NA
ATOM     12  C   UNL     1     -36.045 146.121   2.107  1.00  0.00    +0.103 A 
ATOM     13  C   UNL     1     -36.776 148.252   3.605  1.00  0.00    +0.227 A 
ATOM     14  C   UNL     1     -35.874 146.158   3.467  1.00  0.00    +0.065 A 
ATOM     15  S   UNL     1     -35.422 144.645   1.342  1.00  0.00    +0.059 S 
ATOM     16  N   UNL     1     -36.228 147.197   4.235  1.00  0.00    -0.217 NA
ATOM     17  C   UNL     1     -35.327 144.886   4.051  1.00  0.00    +0.072 C 
ATOM     18  O   UNL     1     -36.626 143.761   1.200  1.00  0.00    -0.254 OA
ATOM     19  C   UNL     1     -34.579 144.196   2.915  1.00  0.00    +0.117 C 
BRANCH  13  20
ATOM     20  N   UNL     1     -37.129 149.355   4.349  1.00  0.00    -0.341 N 
ATOM     21  C   UNL     1     -38.467 149.913   4.206  1.00  0.00    +0.120 C 
ATOM     22  C   UNL     1     -36.117 150.077   5.109  1.00  0.00    +0.120 C 
ATOM     23  C   UNL     1     -38.443 151.421   4.438  1.00  0.00    +0.033 C 
ATOM     24  C   UNL     1     -36.781 150.794   6.282  1.00  0.00    +0.033 C 
ATOM     25  C   UNL     1     -37.867 151.777   5.815  1.00  0.00    +0.061 C 
BRANCH  25  26
ATOM     26  C   UNL     1     -37.367 153.205   5.802  1.00  0.00    +0.131 A 
ATOM     27  N   UNL     1     -37.654 153.974   4.733  1.00  0.00    -0.240 NA
ATOM     28  N   UNL     1     -36.687 153.635   6.885  1.00  0.00    -0.240 NA
ATOM     29  C   UNL     1     -37.212 155.251   4.766  1.00  0.00    +0.135 A 
ATOM     30  C   UNL     1     -36.270 154.921   6.864  1.00  0.00    +0.135 A 
ATOM     31  C   UNL     1     -36.507 155.783   5.818  1.00  0.00    +0.077 A 
ATOM     32 Cl   UNL     1     -35.963 157.403   5.829  1.00  0.00    -0.081 Cl
ENDBRANCH  25  26
ENDBRANCH  13  20
ENDBRANCH   1  10
TORSDOF 6
ENDMDL
