REMARK SMILES CNC(=O)c1cc(Oc2ccc(NC(=O)Nc3ccc(Cl)c(C(F)(F)F)c3)c(F)c2)ccn1
REMARK SMILES IDX 9 1 10 2 11 3 12 4 28 5 29 6 30 7 8 8 7 9 5 10 6 11 33 12
REMARK SMILES IDX 32 13 31 14 3 15 2 16 4 17 1 18 13 20 14 21 15 22 16 23
REMARK SMILES IDX 17 26 18 27 27 28 19 29 22 30 20 31 21 32 23 33 24 34 25 35
REMARK SMILES IDX 26 36
REMARK H PARENT 2 19 13 24 16 25
ROOT
ATOM      1  C   UNL     1       2.046   0.298  -1.713  1.00  0.00    +0.130 A 
ATOM      2  C   UNL     1       1.444  -0.387  -0.653  1.00  0.00    +0.049 A 
ATOM      3  C   UNL     1       0.053  -0.355  -0.491  1.00  0.00    +0.033 A 
ATOM      4  C   UNL     1      -0.742   0.350  -1.395  1.00  0.00    +0.079 A 
ATOM      5  C   UNL     1      -0.118   1.001  -2.469  1.00  0.00    +0.150 A 
ATOM      6  F   UNL     1      -0.871   1.668  -3.360  1.00  0.00    -0.205 F 
ATOM      7  C   UNL     1       1.262   0.978  -2.639  1.00  0.00    +0.088 A 
ENDROOT
BRANCH   1   8
ATOM      8  O   UNL     1       3.402   0.275  -1.940  1.00  0.00    -0.457 OA
BRANCH   8   9
ATOM      9  C   UNL     1       4.230   0.513  -0.866  1.00  0.00    +0.131 A 
ATOM     10  C   UNL     1       6.194  -0.066   0.330  1.00  0.00    +0.131 A 
ATOM     11  C   UNL     1       5.334  -0.318  -0.726  1.00  0.00    +0.081 A 
ATOM     12  N   UNL     1       6.028   0.952   1.224  1.00  0.00    -0.251 NA
ATOM     13  C   UNL     1       4.955   1.749   1.036  1.00  0.00    +0.116 A 
ATOM     14  C   UNL     1       4.039   1.577   0.012  1.00  0.00    +0.067 A 
BRANCH  10  15
ATOM     15  C   UNL     1       7.396  -0.938   0.535  1.00  0.00    +0.269 C 
ATOM     16  N   UNL     1       8.154  -0.608   1.639  1.00  0.00    -0.354 N 
ATOM     17  O   UNL     1       7.663  -1.854  -0.235  1.00  0.00    -0.268 OA
ATOM     18  C   UNL     1       9.409  -1.243   1.932  1.00  0.00    +0.143 C 
ATOM     19  H   UNL     1       7.875   0.236   2.133  1.00  0.00    +0.163 HD
ENDBRANCH  10  15
ENDBRANCH   8   9
ENDBRANCH   1   8
BRANCH   4  20
ATOM     20  N   UNL     1      -2.150   0.436  -1.324  1.00  0.00    -0.305 N 
ATOM     21  C   UNL     1      -2.969   0.024  -0.286  1.00  0.00    +0.323 C 
ATOM     22  O   UNL     1      -2.569  -0.415   0.784  1.00  0.00    -0.248 OA
ATOM     23  N   UNL     1      -4.303   0.179  -0.635  1.00  0.00    -0.308 N 
ATOM     24  H   UNL     1      -2.575   0.994  -2.053  1.00  0.00    +0.171 HD
ATOM     25  H   UNL     1      -4.481   0.351  -1.613  1.00  0.00    +0.171 HD
BRANCH  23  26
ATOM     26  C   UNL     1      -5.434  -0.044   0.177  1.00  0.00    +0.043 A 
ATOM     27  C   UNL     1      -5.375  -0.317   1.542  1.00  0.00    +0.028 A 
ATOM     28  C   UNL     1      -6.691   0.036  -0.439  1.00  0.00    +0.040 A 
ATOM     29  C   UNL     1      -6.548  -0.517   2.275  1.00  0.00    +0.023 A 
ATOM     30  C   UNL     1      -7.885  -0.163   0.287  1.00  0.00    +0.076 A 
ATOM     31  C   UNL     1      -7.796  -0.442   1.653  1.00  0.00    +0.053 A 
ATOM     32 Cl   UNL     1      -9.194  -0.700   2.631  1.00  0.00    -0.084 Cl
BRANCH  30  33
ATOM     33  C   UNL     1      -9.213  -0.071  -0.413  1.00  0.00    +0.417 C 
ATOM     34  F   UNL     1     -10.014   0.909   0.086  1.00  0.00    -0.166 F 
ATOM     35  F   UNL     1      -9.930  -1.227  -0.356  1.00  0.00    -0.166 F 
ATOM     36  F   UNL     1      -9.090   0.209  -1.744  1.00  0.00    -0.166 F 
ENDBRANCH  30  33
ENDBRANCH  23  26
ENDBRANCH   4  20
TORSDOF 6
