MODEL 1
REMARK VINA RESULT:    -9.143      0.000      0.000
REMARK INTER + INTRA:         -13.504
REMARK INTER:                 -12.350
REMARK INTRA:                  -1.155
REMARK UNBOUND:                -1.155
REMARK SMILES CNC(=O)c1cc(Oc2ccc(NC(=O)Nc3ccc(Cl)c(C(F)(F)F)c3)c(F)c2)ccn1
REMARK SMILES IDX 9 1 10 2 11 3 12 4 28 5 29 6 30 7 8 8 7 9 5 10 6 11 33 12
REMARK SMILES IDX 32 13 31 14 3 15 2 16 4 17 1 18 13 20 14 21 15 22 16 23
REMARK SMILES IDX 17 26 18 27 27 28 19 29 22 30 20 31 21 32 23 33 24 34 25 35
REMARK SMILES IDX 26 36
REMARK H PARENT 2 19 13 24 16 25
ROOT
ATOM      1  C   UNL     1     -13.738  -0.928  -9.804  1.00  0.00    +0.130 A 
ATOM      2  C   UNL     1     -12.412  -1.319 -10.015  1.00  0.00    +0.049 A 
ATOM      3  C   UNL     1     -11.525  -0.471 -10.692  1.00  0.00    +0.033 A 
ATOM      4  C   UNL     1     -11.956   0.775 -11.146  1.00  0.00    +0.079 A 
ATOM      5  C   UNL     1     -13.281   1.159 -10.892  1.00  0.00    +0.150 A 
ATOM      6  F   UNL     1     -13.707   2.364 -11.306  1.00  0.00    -0.205 F 
ATOM      7  C   UNL     1     -14.171   0.325 -10.224  1.00  0.00    +0.088 A 
ENDROOT
BRANCH   1   8
ATOM      8  O   UNL     1     -14.642  -1.705  -9.118  1.00  0.00    -0.457 OA
BRANCH   8   9
ATOM      9  C   UNL     1     -14.882  -1.387  -7.800  1.00  0.00    +0.131 A 
ATOM     10  C   UNL     1     -16.421  -0.650  -6.154  1.00  0.00    +0.131 A 
ATOM     11  C   UNL     1     -16.157  -0.938  -7.483  1.00  0.00    +0.081 A 
ATOM     12  N   UNL     1     -15.512  -0.795  -5.146  1.00  0.00    -0.251 NA
ATOM     13  C   UNL     1     -14.293  -1.256  -5.497  1.00  0.00    +0.116 A 
ATOM     14  C   UNL     1     -13.934  -1.571  -6.796  1.00  0.00    +0.067 A 
BRANCH  10  15
ATOM     15  C   UNL     1     -17.777  -0.151  -5.756  1.00  0.00    +0.269 C 
ATOM     16  N   UNL     1     -18.779  -0.455  -6.654  1.00  0.00    -0.354 N 
ATOM     17  O   UNL     1     -17.950   0.478  -4.718  1.00  0.00    -0.268 OA
ATOM     18  C   UNL     1     -20.119   0.043  -6.514  1.00  0.00    +0.143 C 
ATOM     19  H   UNL     1     -18.479  -0.893  -7.522  1.00  0.00    +0.163 HD
ENDBRANCH  10  15
ENDBRANCH   8   9
ENDBRANCH   1   8
BRANCH   4  20
ATOM     20  N   UNL     1     -11.140   1.704 -11.829  1.00  0.00    -0.305 N 
ATOM     21  C   UNL     1     -10.938   1.805 -13.195  1.00  0.00    +0.323 C 
ATOM     22  O   UNL     1     -11.518   1.131 -14.036  1.00  0.00    -0.248 OA
ATOM     23  N   UNL     1      -9.984   2.774 -13.470  1.00  0.00    -0.308 N 
ATOM     24  H   UNL     1     -10.791   2.459 -11.254  1.00  0.00    +0.171 HD
ATOM     25  H   UNL     1      -9.447   3.094 -12.679  1.00  0.00    +0.171 HD
BRANCH  23  26
ATOM     26  C   UNL     1      -9.567   3.233 -14.737  1.00  0.00    +0.043 A 
ATOM     27  C   UNL     1      -8.460   2.737 -15.422  1.00  0.00    +0.028 A 
ATOM     28  C   UNL     1     -10.336   4.238 -15.340  1.00  0.00    +0.040 A 
ATOM     29  C   UNL     1      -8.121   3.244 -16.680  1.00  0.00    +0.023 A 
ATOM     30  C   UNL     1     -10.008   4.760 -16.610  1.00  0.00    +0.076 A 
ATOM     31  C   UNL     1      -8.889   4.249 -17.271  1.00  0.00    +0.053 A 
ATOM     32 Cl   UNL     1      -8.403   4.817 -18.827  1.00  0.00    -0.084 Cl
BRANCH  30  33
ATOM     33  C   UNL     1     -10.859   5.840 -17.219  1.00  0.00    +0.417 C 
ATOM     34  F   UNL     1     -11.289   5.538 -18.474  1.00  0.00    -0.166 F 
ATOM     35  F   UNL     1     -10.221   7.040 -17.305  1.00  0.00    -0.166 F 
ATOM     36  F   UNL     1     -11.993   6.088 -16.501  1.00  0.00    -0.166 F 
ENDBRANCH  30  33
ENDBRANCH  23  26
ENDBRANCH   4  20
TORSDOF 6
ENDMDL
MODEL 2
REMARK VINA RESULT:    -8.722      7.727      9.854
REMARK INTER + INTRA:         -12.936
REMARK INTER:                 -11.810
REMARK INTRA:                  -1.126
REMARK UNBOUND:                -1.155
REMARK SMILES CNC(=O)c1cc(Oc2ccc(NC(=O)Nc3ccc(Cl)c(C(F)(F)F)c3)c(F)c2)ccn1
REMARK SMILES IDX 9 1 10 2 11 3 12 4 28 5 29 6 30 7 8 8 7 9 5 10 6 11 33 12
REMARK SMILES IDX 32 13 31 14 3 15 2 16 4 17 1 18 13 20 14 21 15 22 16 23
REMARK SMILES IDX 17 26 18 27 27 28 19 29 22 30 20 31 21 32 23 33 24 34 25 35
REMARK SMILES IDX 26 36
REMARK H PARENT 2 19 13 24 16 25
ROOT
ATOM      1  C   UNL     1      -7.617  -0.290 -14.497  1.00  0.00    +0.130 A 
ATOM      2  C   UNL     1      -7.903  -0.361 -15.863  1.00  0.00    +0.049 A 
ATOM      3  C   UNL     1      -8.567   0.695 -16.501  1.00  0.00    +0.033 A 
ATOM      4  C   UNL     1      -8.935   1.831 -15.778  1.00  0.00    +0.079 A 
ATOM      5  C   UNL     1      -8.606   1.892 -14.416  1.00  0.00    +0.150 A 
ATOM      6  F   UNL     1      -8.935   2.987 -13.710  1.00  0.00    -0.205 F 
ATOM      7  C   UNL     1      -7.949   0.849 -13.772  1.00  0.00    +0.088 A 
ENDROOT
BRANCH   1   8
ATOM      8  O   UNL     1      -6.939  -1.281 -13.826  1.00  0.00    -0.457 OA
BRANCH   8   9
ATOM      9  C   UNL     1      -5.751  -1.717 -14.368  1.00  0.00    +0.131 A 
ATOM     10  C   UNL     1      -4.493  -3.504 -15.290  1.00  0.00    +0.131 A 
ATOM     11  C   UNL     1      -5.671  -3.061 -14.710  1.00  0.00    +0.081 A 
ATOM     12  N   UNL     1      -3.423  -2.700 -15.555  1.00  0.00    -0.251 NA
ATOM     13  C   UNL     1      -3.553  -1.397 -15.228  1.00  0.00    +0.116 A 
ATOM     14  C   UNL     1      -4.689  -0.860 -14.645  1.00  0.00    +0.067 A 
BRANCH  10  15
ATOM     15  C   UNL     1      -4.348  -4.947 -15.669  1.00  0.00    +0.269 C 
ATOM     16  N   UNL     1      -5.522  -5.669 -15.612  1.00  0.00    -0.354 N 
ATOM     17  O   UNL     1      -3.263  -5.420 -15.990  1.00  0.00    -0.268 OA
ATOM     18  C   UNL     1      -5.564  -7.091 -15.815  1.00  0.00    +0.143 C 
ATOM     19  H   UNL     1      -6.327  -5.178 -15.233  1.00  0.00    +0.163 HD
ENDBRANCH  10  15
ENDBRANCH   8   9
ENDBRANCH   1   8
BRANCH   4  20
ATOM     20  N   UNL     1      -9.598   2.949 -16.328  1.00  0.00    -0.305 N 
ATOM     21  C   UNL     1      -9.026   4.112 -16.819  1.00  0.00    +0.323 C 
ATOM     22  O   UNL     1      -7.823   4.306 -16.920  1.00  0.00    -0.248 OA
ATOM     23  N   UNL     1     -10.013   5.020 -17.176  1.00  0.00    -0.308 N 
ATOM     24  H   UNL     1     -10.583   2.807 -16.511  1.00  0.00    +0.171 HD
ATOM     25  H   UNL     1     -10.942   4.807 -16.845  1.00  0.00    +0.171 HD
BRANCH  23  26
ATOM     26  C   UNL     1      -9.841   6.276 -17.793  1.00  0.00    +0.043 A 
ATOM     27  C   UNL     1      -9.398   7.418 -17.130  1.00  0.00    +0.028 A 
ATOM     28  C   UNL     1     -10.119   6.360 -19.165  1.00  0.00    +0.040 A 
ATOM     29  C   UNL     1      -9.246   8.624 -17.821  1.00  0.00    +0.023 A 
ATOM     30  C   UNL     1      -9.970   7.569 -19.877  1.00  0.00    +0.076 A 
ATOM     31  C   UNL     1      -9.531   8.701 -19.186  1.00  0.00    +0.053 A 
ATOM     32 Cl   UNL     1      -9.316  10.226 -19.963  1.00  0.00    -0.084 Cl
BRANCH  30  33
ATOM     33  C   UNL     1     -10.282   7.617 -21.348  1.00  0.00    +0.417 C 
ATOM     34  F   UNL     1      -9.197   7.908 -22.115  1.00  0.00    -0.166 F 
ATOM     35  F   UNL     1     -11.240   8.532 -21.663  1.00  0.00    -0.166 F 
ATOM     36  F   UNL     1     -10.752   6.427 -21.827  1.00  0.00    -0.166 F 
ENDBRANCH  30  33
ENDBRANCH  23  26
ENDBRANCH   4  20
TORSDOF 6
ENDMDL
MODEL 3
REMARK VINA RESULT:    -8.719      1.738      2.219
REMARK INTER + INTRA:         -12.931
REMARK INTER:                 -11.799
REMARK INTRA:                  -1.133
REMARK UNBOUND:                -1.155
REMARK SMILES CNC(=O)c1cc(Oc2ccc(NC(=O)Nc3ccc(Cl)c(C(F)(F)F)c3)c(F)c2)ccn1
REMARK SMILES IDX 9 1 10 2 11 3 12 4 28 5 29 6 30 7 8 8 7 9 5 10 6 11 33 12
REMARK SMILES IDX 32 13 31 14 3 15 2 16 4 17 1 18 13 20 14 21 15 22 16 23
REMARK SMILES IDX 17 26 18 27 27 28 19 29 22 30 20 31 21 32 23 33 24 34 25 35
REMARK SMILES IDX 26 36
REMARK H PARENT 2 19 13 24 16 25
ROOT
ATOM      1  C   UNL     1     -13.649  -0.975  -9.808  1.00  0.00    +0.130 A 
ATOM      2  C   UNL     1     -12.320  -1.345 -10.041  1.00  0.00    +0.049 A 
ATOM      3  C   UNL     1     -11.456  -0.479 -10.722  1.00  0.00    +0.033 A 
ATOM      4  C   UNL     1     -11.912   0.764 -11.162  1.00  0.00    +0.079 A 
ATOM      5  C   UNL     1     -13.238   1.126 -10.887  1.00  0.00    +0.150 A 
ATOM      6  F   UNL     1     -13.687   2.328 -11.285  1.00  0.00    -0.205 F 
ATOM      7  C   UNL     1     -14.106   0.274 -10.212  1.00  0.00    +0.088 A 
ENDROOT
BRANCH   1   8
ATOM      8  O   UNL     1     -14.532  -1.770  -9.116  1.00  0.00    -0.457 OA
BRANCH   8   9
ATOM      9  C   UNL     1     -14.787  -1.443  -7.803  1.00  0.00    +0.131 A 
ATOM     10  C   UNL     1     -16.351  -0.719  -6.174  1.00  0.00    +0.131 A 
ATOM     11  C   UNL     1     -16.073  -1.017  -7.498  1.00  0.00    +0.081 A 
ATOM     12  N   UNL     1     -15.446  -0.835  -5.159  1.00  0.00    -0.251 NA
ATOM     13  C   UNL     1     -14.215  -1.276  -5.497  1.00  0.00    +0.116 A 
ATOM     14  C   UNL     1     -13.842  -1.597  -6.791  1.00  0.00    +0.067 A 
BRANCH  10  15
ATOM     15  C   UNL     1     -17.720  -0.244  -5.790  1.00  0.00    +0.269 C 
ATOM     16  N   UNL     1     -18.727  -0.686  -6.622  1.00  0.00    -0.354 N 
ATOM     17  O   UNL     1     -17.897   0.482  -4.818  1.00  0.00    -0.268 OA
ATOM     18  C   UNL     1     -20.086  -0.238  -6.494  1.00  0.00    +0.143 C 
ATOM     19  H   UNL     1     -18.428  -1.199  -7.447  1.00  0.00    +0.163 HD
ENDBRANCH  10  15
ENDBRANCH   8   9
ENDBRANCH   1   8
BRANCH   4  20
ATOM     20  N   UNL     1     -11.118   1.710 -11.848  1.00  0.00    -0.305 N 
ATOM     21  C   UNL     1     -11.043   1.913 -13.216  1.00  0.00    +0.323 C 
ATOM     22  O   UNL     1     -11.734   1.336 -14.045  1.00  0.00    -0.248 OA
ATOM     23  N   UNL     1     -10.072   2.860 -13.509  1.00  0.00    -0.308 N 
ATOM     24  H   UNL     1     -10.678   2.400 -11.255  1.00  0.00    +0.171 HD
ATOM     25  H   UNL     1      -9.446   3.092 -12.753  1.00  0.00    +0.171 HD
BRANCH  23  26
ATOM     26  C   UNL     1      -9.756   3.403 -14.772  1.00  0.00    +0.043 A 
ATOM     27  C   UNL     1     -10.567   4.299 -15.463  1.00  0.00    +0.028 A 
ATOM     28  C   UNL     1      -8.535   3.020 -15.345  1.00  0.00    +0.040 A 
ATOM     29  C   UNL     1     -10.172   4.796 -16.709  1.00  0.00    +0.023 A 
ATOM     30  C   UNL     1      -8.121   3.513 -16.602  1.00  0.00    +0.076 A 
ATOM     31  C   UNL     1      -8.958   4.405 -17.277  1.00  0.00    +0.053 A 
ATOM     32 Cl   UNL     1      -8.545   5.066 -18.816  1.00  0.00    -0.084 Cl
BRANCH  30  33
ATOM     33  C   UNL     1      -6.805   3.075 -17.183  1.00  0.00    +0.417 C 
ATOM     34  F   UNL     1      -5.934   4.103 -17.370  1.00  0.00    -0.166 F 
ATOM     35  F   UNL     1      -6.932   2.448 -18.385  1.00  0.00    -0.166 F 
ATOM     36  F   UNL     1      -6.144   2.186 -16.384  1.00  0.00    -0.166 F 
ENDBRANCH  30  33
ENDBRANCH  23  26
ENDBRANCH   4  20
TORSDOF 6
ENDMDL
MODEL 4
REMARK VINA RESULT:    -8.605      1.335      2.600
REMARK INTER + INTRA:         -12.777
REMARK INTER:                 -11.665
REMARK INTRA:                  -1.113
REMARK UNBOUND:                -1.155
REMARK SMILES CNC(=O)c1cc(Oc2ccc(NC(=O)Nc3ccc(Cl)c(C(F)(F)F)c3)c(F)c2)ccn1
REMARK SMILES IDX 9 1 10 2 11 3 12 4 28 5 29 6 30 7 8 8 7 9 5 10 6 11 33 12
REMARK SMILES IDX 32 13 31 14 3 15 2 16 4 17 1 18 13 20 14 21 15 22 16 23
REMARK SMILES IDX 17 26 18 27 27 28 19 29 22 30 20 31 21 32 23 33 24 34 25 35
REMARK SMILES IDX 26 36
REMARK H PARENT 2 19 13 24 16 25
ROOT
ATOM      1  C   UNL     1     -13.712  -0.991  -9.823  1.00  0.00    +0.130 A 
ATOM      2  C   UNL     1     -12.376  -1.340 -10.043  1.00  0.00    +0.049 A 
ATOM      3  C   UNL     1     -11.514  -0.454 -10.702  1.00  0.00    +0.033 A 
ATOM      4  C   UNL     1     -11.981   0.788 -11.132  1.00  0.00    +0.079 A 
ATOM      5  C   UNL     1     -13.316   1.129 -10.871  1.00  0.00    +0.150 A 
ATOM      6  F   UNL     1     -13.776   2.330 -11.261  1.00  0.00    -0.205 F 
ATOM      7  C   UNL     1     -14.181   0.257 -10.219  1.00  0.00    +0.088 A 
ENDROOT
BRANCH   1   8
ATOM      8  O   UNL     1     -14.594  -1.806  -9.154  1.00  0.00    -0.457 OA
BRANCH   8   9
ATOM      9  C   UNL     1     -14.874  -1.498  -7.842  1.00  0.00    +0.131 A 
ATOM     10  C   UNL     1     -14.057  -0.963  -5.681  1.00  0.00    +0.131 A 
ATOM     11  C   UNL     1     -13.789  -1.309  -6.995  1.00  0.00    +0.081 A 
ATOM     12  N   UNL     1     -15.314  -0.784  -5.179  1.00  0.00    -0.251 NA
ATOM     13  C   UNL     1     -16.337  -0.954  -6.043  1.00  0.00    +0.116 A 
ATOM     14  C   UNL     1     -16.170  -1.301  -7.373  1.00  0.00    +0.067 A 
BRANCH  10  15
ATOM     15  C   UNL     1     -12.925  -0.757  -4.720  1.00  0.00    +0.269 C 
ATOM     16  N   UNL     1     -11.768  -1.429  -5.055  1.00  0.00    -0.354 N 
ATOM     17  O   UNL     1     -13.048  -0.052  -3.724  1.00  0.00    -0.268 OA
ATOM     18  C   UNL     1     -10.616  -1.460  -4.196  1.00  0.00    +0.143 C 
ATOM     19  H   UNL     1     -11.835  -2.058  -5.852  1.00  0.00    +0.163 HD
ENDBRANCH  10  15
ENDBRANCH   8   9
ENDBRANCH   1   8
BRANCH   4  20
ATOM     20  N   UNL     1     -11.191   1.753 -11.796  1.00  0.00    -0.305 N 
ATOM     21  C   UNL     1     -10.950   1.855 -13.156  1.00  0.00    +0.323 C 
ATOM     22  O   UNL     1     -11.467   1.146 -14.009  1.00  0.00    -0.248 OA
ATOM     23  N   UNL     1     -10.039   2.870 -13.408  1.00  0.00    -0.308 N 
ATOM     24  H   UNL     1     -10.900   2.530 -11.217  1.00  0.00    +0.171 HD
ATOM     25  H   UNL     1      -9.544   3.223 -12.603  1.00  0.00    +0.171 HD
BRANCH  23  26
ATOM     26  C   UNL     1      -9.605   3.341 -14.665  1.00  0.00    +0.043 A 
ATOM     27  C   UNL     1      -8.467   2.878 -15.322  1.00  0.00    +0.028 A 
ATOM     28  C   UNL     1     -10.388   4.323 -15.287  1.00  0.00    +0.040 A 
ATOM     29  C   UNL     1      -8.113   3.394 -16.572  1.00  0.00    +0.023 A 
ATOM     30  C   UNL     1     -10.045   4.854 -16.549  1.00  0.00    +0.076 A 
ATOM     31  C   UNL     1      -8.895   4.377 -17.182  1.00  0.00    +0.053 A 
ATOM     32 Cl   UNL     1      -8.388   4.958 -18.726  1.00  0.00    -0.084 Cl
BRANCH  30  33
ATOM     33  C   UNL     1     -10.912   5.908 -17.180  1.00  0.00    +0.417 C 
ATOM     34  F   UNL     1     -11.370   5.557 -18.412  1.00  0.00    -0.166 F 
ATOM     35  F   UNL     1     -10.280   7.105 -17.326  1.00  0.00    -0.166 F 
ATOM     36  F   UNL     1     -12.031   6.181 -16.446  1.00  0.00    -0.166 F 
ENDBRANCH  30  33
ENDBRANCH  23  26
ENDBRANCH   4  20
TORSDOF 6
ENDMDL
MODEL 5
REMARK VINA RESULT:    -8.531      7.833     10.274
REMARK INTER + INTRA:         -12.677
REMARK INTER:                 -11.581
REMARK INTRA:                  -1.096
REMARK UNBOUND:                -1.155
REMARK SMILES CNC(=O)c1cc(Oc2ccc(NC(=O)Nc3ccc(Cl)c(C(F)(F)F)c3)c(F)c2)ccn1
REMARK SMILES IDX 9 1 10 2 11 3 12 4 28 5 29 6 30 7 8 8 7 9 5 10 6 11 33 12
REMARK SMILES IDX 32 13 31 14 3 15 2 16 4 17 1 18 13 20 14 21 15 22 16 23
REMARK SMILES IDX 17 26 18 27 27 28 19 29 22 30 20 31 21 32 23 33 24 34 25 35
REMARK SMILES IDX 26 36
REMARK H PARENT 2 19 13 24 16 25
ROOT
ATOM      1  C   UNL     1      -7.527  -0.196 -14.503  1.00  0.00    +0.130 A 
ATOM      2  C   UNL     1      -7.852  -0.348 -15.855  1.00  0.00    +0.049 A 
ATOM      3  C   UNL     1      -8.532   0.671 -16.536  1.00  0.00    +0.033 A 
ATOM      4  C   UNL     1      -8.877   1.848 -15.872  1.00  0.00    +0.079 A 
ATOM      5  C   UNL     1      -8.510   1.991 -14.526  1.00  0.00    +0.150 A 
ATOM      6  F   UNL     1      -8.817   3.127 -13.878  1.00  0.00    -0.205 F 
ATOM      7  C   UNL     1      -7.837   0.986 -13.839  1.00  0.00    +0.088 A 
ENDROOT
BRANCH   1   8
ATOM      8  O   UNL     1      -6.833  -1.148 -13.794  1.00  0.00    -0.457 OA
BRANCH   8   9
ATOM      9  C   UNL     1      -5.812  -1.805 -14.443  1.00  0.00    +0.131 A 
ATOM     10  C   UNL     1      -3.625  -1.725 -15.355  1.00  0.00    +0.131 A 
ATOM     11  C   UNL     1      -4.673  -1.066 -14.734  1.00  0.00    +0.081 A 
ATOM     12  N   UNL     1      -3.642  -3.051 -15.680  1.00  0.00    -0.251 NA
ATOM     13  C   UNL     1      -4.759  -3.736 -15.357  1.00  0.00    +0.116 A 
ATOM     14  C   UNL     1      -5.858  -3.165 -14.737  1.00  0.00    +0.067 A 
BRANCH  10  15
ATOM     15  C   UNL     1      -2.375  -0.974 -15.703  1.00  0.00    +0.269 C 
ATOM     16  N   UNL     1      -2.539  -0.029 -16.694  1.00  0.00    -0.354 N 
ATOM     17  O   UNL     1      -1.309  -1.208 -15.143  1.00  0.00    -0.268 OA
ATOM     18  C   UNL     1      -1.436   0.703 -17.253  1.00  0.00    +0.143 C 
ATOM     19  H   UNL     1      -3.451  -0.010 -17.142  1.00  0.00    +0.163 HD
ENDBRANCH  10  15
ENDBRANCH   8   9
ENDBRANCH   1   8
BRANCH   4  20
ATOM     20  N   UNL     1      -9.553   2.935 -16.471  1.00  0.00    -0.305 N 
ATOM     21  C   UNL     1      -8.999   4.101 -16.971  1.00  0.00    +0.323 C 
ATOM     22  O   UNL     1      -7.798   4.327 -17.040  1.00  0.00    -0.248 OA
ATOM     23  N   UNL     1      -9.998   4.972 -17.381  1.00  0.00    -0.308 N 
ATOM     24  H   UNL     1     -10.527   2.760 -16.680  1.00  0.00    +0.171 HD
ATOM     25  H   UNL     1     -10.931   4.741 -17.073  1.00  0.00    +0.171 HD
BRANCH  23  26
ATOM     26  C   UNL     1      -9.841   6.217 -18.022  1.00  0.00    +0.043 A 
ATOM     27  C   UNL     1      -9.420   7.380 -17.381  1.00  0.00    +0.028 A 
ATOM     28  C   UNL     1     -10.113   6.269 -19.397  1.00  0.00    +0.040 A 
ATOM     29  C   UNL     1      -9.282   8.573 -18.095  1.00  0.00    +0.023 A 
ATOM     30  C   UNL     1      -9.979   7.466 -20.134  1.00  0.00    +0.076 A 
ATOM     31  C   UNL     1      -9.561   8.618 -19.463  1.00  0.00    +0.053 A 
ATOM     32 Cl   UNL     1      -9.364  10.130 -20.270  1.00  0.00    -0.084 Cl
BRANCH  30  33
ATOM     33  C   UNL     1     -10.282   7.478 -21.607  1.00  0.00    +0.417 C 
ATOM     34  F   UNL     1     -11.205   8.415 -21.954  1.00  0.00    -0.166 F 
ATOM     35  F   UNL     1     -10.746   6.284 -22.068  1.00  0.00    -0.166 F 
ATOM     36  F   UNL     1      -9.184   7.755 -22.370  1.00  0.00    -0.166 F 
ENDBRANCH  30  33
ENDBRANCH  23  26
ENDBRANCH   4  20
TORSDOF 6
ENDMDL
MODEL 6
REMARK VINA RESULT:    -8.474      4.484      6.860
REMARK INTER + INTRA:         -12.601
REMARK INTER:                 -11.714
REMARK INTRA:                  -0.887
REMARK UNBOUND:                -1.155
REMARK SMILES CNC(=O)c1cc(Oc2ccc(NC(=O)Nc3ccc(Cl)c(C(F)(F)F)c3)c(F)c2)ccn1
REMARK SMILES IDX 9 1 10 2 11 3 12 4 28 5 29 6 30 7 8 8 7 9 5 10 6 11 33 12
REMARK SMILES IDX 32 13 31 14 3 15 2 16 4 17 1 18 13 20 14 21 15 22 16 23
REMARK SMILES IDX 17 26 18 27 27 28 19 29 22 30 20 31 21 32 23 33 24 34 25 35
REMARK SMILES IDX 26 36
REMARK H PARENT 2 19 13 24 16 25
ROOT
ATOM      1  C   UNL     1      -7.556  -0.194 -14.367  1.00  0.00    +0.130 A 
ATOM      2  C   UNL     1      -7.896  -0.362 -15.713  1.00  0.00    +0.049 A 
ATOM      3  C   UNL     1      -8.565   0.657 -16.405  1.00  0.00    +0.033 A 
ATOM      4  C   UNL     1      -8.883   1.851 -15.758  1.00  0.00    +0.079 A 
ATOM      5  C   UNL     1      -8.501   2.009 -14.417  1.00  0.00    +0.150 A 
ATOM      6  F   UNL     1      -8.783   3.161 -13.785  1.00  0.00    -0.205 F 
ATOM      7  C   UNL     1      -7.839   1.004 -13.720  1.00  0.00    +0.088 A 
ENDROOT
BRANCH   1   8
ATOM      8  O   UNL     1      -6.871  -1.145 -13.648  1.00  0.00    -0.457 OA
BRANCH   8   9
ATOM      9  C   UNL     1      -7.215  -1.311 -12.325  1.00  0.00    +0.131 A 
ATOM     10  C   UNL     1      -8.879  -1.875 -10.732  1.00  0.00    +0.131 A 
ATOM     11  C   UNL     1      -8.530  -1.670 -12.057  1.00  0.00    +0.081 A 
ATOM     12  N   UNL     1      -8.009  -1.759  -9.687  1.00  0.00    -0.251 NA
ATOM     13  C   UNL     1      -6.737  -1.431  -9.996  1.00  0.00    +0.116 A 
ATOM     14  C   UNL     1      -6.293  -1.206 -11.288  1.00  0.00    +0.067 A 
BRANCH  10  15
ATOM     15  C   UNL     1     -10.286  -2.255 -10.384  1.00  0.00    +0.269 C 
ATOM     16  N   UNL     1     -10.909  -1.385  -9.513  1.00  0.00    -0.354 N 
ATOM     17  O   UNL     1     -10.811  -3.264 -10.842  1.00  0.00    -0.268 OA
ATOM     18  C   UNL     1     -12.211  -1.643  -8.963  1.00  0.00    +0.143 C 
ATOM     19  H   UNL     1     -10.325  -0.644  -9.133  1.00  0.00    +0.163 HD
ENDBRANCH  10  15
ENDBRANCH   8   9
ENDBRANCH   1   8
BRANCH   4  20
ATOM     20  N   UNL     1      -9.546   2.939 -16.368  1.00  0.00    -0.305 N 
ATOM     21  C   UNL     1      -8.979   4.100 -16.867  1.00  0.00    +0.323 C 
ATOM     22  O   UNL     1      -7.777   4.319 -16.923  1.00  0.00    -0.248 OA
ATOM     23  N   UNL     1      -9.969   4.975 -17.291  1.00  0.00    -0.308 N 
ATOM     24  H   UNL     1     -10.519   2.770 -16.587  1.00  0.00    +0.171 HD
ATOM     25  H   UNL     1     -10.907   4.751 -16.993  1.00  0.00    +0.171 HD
BRANCH  23  26
ATOM     26  C   UNL     1      -9.798   6.217 -17.936  1.00  0.00    +0.043 A 
ATOM     27  C   UNL     1      -9.354   7.374 -17.299  1.00  0.00    +0.028 A 
ATOM     28  C   UNL     1     -10.078   6.270 -19.309  1.00  0.00    +0.040 A 
ATOM     29  C   UNL     1      -9.204   8.564 -18.017  1.00  0.00    +0.023 A 
ATOM     30  C   UNL     1      -9.931   7.464 -20.048  1.00  0.00    +0.076 A 
ATOM     31  C   UNL     1      -9.491   8.610 -19.383  1.00  0.00    +0.053 A 
ATOM     32 Cl   UNL     1      -9.277  10.118 -20.194  1.00  0.00    -0.084 Cl
BRANCH  30  33
ATOM     33  C   UNL     1     -10.245   7.478 -21.519  1.00  0.00    +0.417 C 
ATOM     34  F   UNL     1     -10.739   6.295 -21.972  1.00  0.00    -0.166 F 
ATOM     35  F   UNL     1      -9.165   7.772 -22.294  1.00  0.00    -0.166 F 
ATOM     36  F   UNL     1     -11.186   8.411 -21.849  1.00  0.00    -0.166 F 
ENDBRANCH  30  33
ENDBRANCH  23  26
ENDBRANCH   4  20
TORSDOF 6
ENDMDL
MODEL 7
REMARK VINA RESULT:    -8.345      5.333     11.590
REMARK INTER + INTRA:         -12.426
REMARK INTER:                 -11.453
REMARK INTRA:                  -0.974
REMARK UNBOUND:                -1.155
REMARK SMILES CNC(=O)c1cc(Oc2ccc(NC(=O)Nc3ccc(Cl)c(C(F)(F)F)c3)c(F)c2)ccn1
REMARK SMILES IDX 9 1 10 2 11 3 12 4 28 5 29 6 30 7 8 8 7 9 5 10 6 11 33 12
REMARK SMILES IDX 32 13 31 14 3 15 2 16 4 17 1 18 13 20 14 21 15 22 16 23
REMARK SMILES IDX 17 26 18 27 27 28 19 29 22 30 20 31 21 32 23 33 24 34 25 35
REMARK SMILES IDX 26 36
REMARK H PARENT 2 19 13 24 16 25
ROOT
ATOM      1  C   UNL     1     -11.909   4.355 -15.101  1.00  0.00    +0.130 A 
ATOM      2  C   UNL     1     -10.653   3.758 -14.956  1.00  0.00    +0.049 A 
ATOM      3  C   UNL     1     -10.399   2.898 -13.880  1.00  0.00    +0.033 A 
ATOM      4  C   UNL     1     -11.404   2.621 -12.952  1.00  0.00    +0.079 A 
ATOM      5  C   UNL     1     -12.665   3.205 -13.137  1.00  0.00    +0.150 A 
ATOM      6  F   UNL     1     -13.650   2.933 -12.264  1.00  0.00    -0.205 F 
ATOM      7  C   UNL     1     -12.928   4.062 -14.201  1.00  0.00    +0.088 A 
ENDROOT
BRANCH   1   8
ATOM      8  O   UNL     1     -12.224   5.181 -16.154  1.00  0.00    -0.457 OA
BRANCH   8   9
ATOM      9  C   UNL     1     -11.244   6.034 -16.608  1.00  0.00    +0.131 A 
ATOM     10  C   UNL     1      -9.926   6.804 -18.423  1.00  0.00    +0.131 A 
ATOM     11  C   UNL     1     -10.886   5.927 -17.946  1.00  0.00    +0.081 A 
ATOM     12  N   UNL     1      -9.328   7.768 -17.664  1.00  0.00    -0.251 NA
ATOM     13  C   UNL     1      -9.723   7.852 -16.377  1.00  0.00    +0.116 A 
ATOM     14  C   UNL     1     -10.673   7.021 -15.808  1.00  0.00    +0.067 A 
BRANCH  10  15
ATOM     15  C   UNL     1      -9.494   6.726 -19.856  1.00  0.00    +0.269 C 
ATOM     16  N   UNL     1     -10.369   7.314 -20.745  1.00  0.00    -0.354 N 
ATOM     17  O   UNL     1      -8.450   6.172 -20.183  1.00  0.00    -0.268 OA
ATOM     18  C   UNL     1     -10.195   7.233 -22.169  1.00  0.00    +0.143 C 
ATOM     19  H   UNL     1     -11.245   7.648 -20.350  1.00  0.00    +0.163 HD
ENDBRANCH  10  15
ENDBRANCH   8   9
ENDBRANCH   1   8
BRANCH   4  20
ATOM     20  N   UNL     1     -11.252   1.763 -11.841  1.00  0.00    -0.305 N 
ATOM     21  C   UNL     1     -11.154   0.382 -11.848  1.00  0.00    +0.323 C 
ATOM     22  O   UNL     1     -11.105  -0.307 -12.859  1.00  0.00    -0.248 OA
ATOM     23  N   UNL     1     -11.121  -0.105 -10.549  1.00  0.00    -0.308 N 
ATOM     24  H   UNL     1     -11.046   2.235 -10.970  1.00  0.00    +0.171 HD
ATOM     25  H   UNL     1     -11.379   0.553  -9.830  1.00  0.00    +0.171 HD
BRANCH  23  26
ATOM     26  C   UNL     1     -10.940  -1.442 -10.138  1.00  0.00    +0.043 A 
ATOM     27  C   UNL     1      -9.725  -1.968  -9.703  1.00  0.00    +0.028 A 
ATOM     28  C   UNL     1     -12.066  -2.277 -10.157  1.00  0.00    +0.040 A 
ATOM     29  C   UNL     1      -9.635  -3.305  -9.304  1.00  0.00    +0.023 A 
ATOM     30  C   UNL     1     -11.992  -3.629  -9.758  1.00  0.00    +0.076 A 
ATOM     31  C   UNL     1     -10.760  -4.131  -9.332  1.00  0.00    +0.053 A 
ATOM     32 Cl   UNL     1     -10.563  -5.768  -8.822  1.00  0.00    -0.084 Cl
BRANCH  30  33
ATOM     33  C   UNL     1     -13.224  -4.491  -9.796  1.00  0.00    +0.417 C 
ATOM     34  F   UNL     1     -13.592  -4.952  -8.570  1.00  0.00    -0.166 F 
ATOM     35  F   UNL     1     -13.090  -5.582 -10.598  1.00  0.00    -0.166 F 
ATOM     36  F   UNL     1     -14.318  -3.827 -10.273  1.00  0.00    -0.166 F 
ENDBRANCH  30  33
ENDBRANCH  23  26
ENDBRANCH   4  20
TORSDOF 6
ENDMDL
MODEL 8
REMARK VINA RESULT:    -8.326      2.460      3.610
REMARK INTER + INTRA:         -12.402
REMARK INTER:                 -11.608
REMARK INTRA:                  -0.794
REMARK UNBOUND:                -1.155
REMARK SMILES CNC(=O)c1cc(Oc2ccc(NC(=O)Nc3ccc(Cl)c(C(F)(F)F)c3)c(F)c2)ccn1
REMARK SMILES IDX 9 1 10 2 11 3 12 4 28 5 29 6 30 7 8 8 7 9 5 10 6 11 33 12
REMARK SMILES IDX 32 13 31 14 3 15 2 16 4 17 1 18 13 20 14 21 15 22 16 23
REMARK SMILES IDX 17 26 18 27 27 28 19 29 22 30 20 31 21 32 23 33 24 34 25 35
REMARK SMILES IDX 26 36
REMARK H PARENT 2 19 13 24 16 25
ROOT
ATOM      1  C   UNL     1     -14.082  -0.574  -9.811  1.00  0.00    +0.130 A 
ATOM      2  C   UNL     1     -14.468   0.700 -10.239  1.00  0.00    +0.049 A 
ATOM      3  C   UNL     1     -13.557   1.526 -10.909  1.00  0.00    +0.033 A 
ATOM      4  C   UNL     1     -12.261   1.077 -11.166  1.00  0.00    +0.079 A 
ATOM      5  C   UNL     1     -11.908  -0.217 -10.757  1.00  0.00    +0.150 A 
ATOM      6  F   UNL     1     -10.670  -0.672 -11.014  1.00  0.00    -0.205 F 
ATOM      7  C   UNL     1     -12.803  -1.045 -10.089  1.00  0.00    +0.088 A 
ENDROOT
BRANCH   1   8
ATOM      8  O   UNL     1     -14.942  -1.440  -9.178  1.00  0.00    -0.457 OA
BRANCH   8   9
ATOM      9  C   UNL     1     -14.407  -2.298  -8.244  1.00  0.00    +0.131 A 
ATOM     10  C   UNL     1     -13.733  -4.503  -7.687  1.00  0.00    +0.131 A 
ATOM     11  C   UNL     1     -14.303  -3.636  -8.605  1.00  0.00    +0.081 A 
ATOM     12  N   UNL     1     -13.258  -4.119  -6.467  1.00  0.00    -0.251 NA
ATOM     13  C   UNL     1     -13.357  -2.807  -6.167  1.00  0.00    +0.116 A 
ATOM     14  C   UNL     1     -13.912  -1.864  -7.017  1.00  0.00    +0.067 A 
BRANCH  10  15
ATOM     15  C   UNL     1     -13.606  -5.959  -8.020  1.00  0.00    +0.269 C 
ATOM     16  N   UNL     1     -12.908  -6.216  -9.181  1.00  0.00    -0.354 N 
ATOM     17  O   UNL     1     -14.099  -6.826  -7.306  1.00  0.00    -0.268 OA
ATOM     18  C   UNL     1     -12.787  -7.537  -9.733  1.00  0.00    +0.143 C 
ATOM     19  H   UNL     1     -12.640  -5.402  -9.728  1.00  0.00    +0.163 HD
ENDBRANCH  10  15
ENDBRANCH   8   9
ENDBRANCH   1   8
BRANCH   4  20
ATOM     20  N   UNL     1     -11.274   1.828 -11.841  1.00  0.00    -0.305 N 
ATOM     21  C   UNL     1     -11.159   2.038 -13.205  1.00  0.00    +0.323 C 
ATOM     22  O   UNL     1     -11.968   1.654 -14.039  1.00  0.00    -0.248 OA
ATOM     23  N   UNL     1      -9.996   2.741 -13.487  1.00  0.00    -0.308 N 
ATOM     24  H   UNL     1     -10.683   2.385 -11.237  1.00  0.00    +0.171 HD
ATOM     25  H   UNL     1      -9.330   2.805 -12.732  1.00  0.00    +0.171 HD
BRANCH  23  26
ATOM     26  C   UNL     1      -9.568   3.223 -14.741  1.00  0.00    +0.043 A 
ATOM     27  C   UNL     1      -8.477   2.713 -15.443  1.00  0.00    +0.028 A 
ATOM     28  C   UNL     1     -10.307   4.267 -15.314  1.00  0.00    +0.040 A 
ATOM     29  C   UNL     1      -8.126   3.244 -16.687  1.00  0.00    +0.023 A 
ATOM     30  C   UNL     1      -9.966   4.814 -16.569  1.00  0.00    +0.076 A 
ATOM     31  C   UNL     1      -8.864   4.289 -17.248  1.00  0.00    +0.053 A 
ATOM     32 Cl   UNL     1      -8.364   4.885 -18.788  1.00  0.00    -0.084 Cl
BRANCH  30  33
ATOM     33  C   UNL     1     -10.785   5.937 -17.146  1.00  0.00    +0.417 C 
ATOM     34  F   UNL     1     -11.288   5.653 -18.378  1.00  0.00    -0.166 F 
ATOM     35  F   UNL     1     -10.088   7.100 -17.268  1.00  0.00    -0.166 F 
ATOM     36  F   UNL     1     -11.870   6.248 -16.378  1.00  0.00    -0.166 F 
ENDBRANCH  30  33
ENDBRANCH  23  26
ENDBRANCH   4  20
TORSDOF 6
ENDMDL
MODEL 9
REMARK VINA RESULT:    -8.178      2.136      3.377
REMARK INTER + INTRA:         -12.202
REMARK INTER:                 -11.094
REMARK INTRA:                  -1.108
REMARK UNBOUND:                -1.155
REMARK SMILES CNC(=O)c1cc(Oc2ccc(NC(=O)Nc3ccc(Cl)c(C(F)(F)F)c3)c(F)c2)ccn1
REMARK SMILES IDX 9 1 10 2 11 3 12 4 28 5 29 6 30 7 8 8 7 9 5 10 6 11 33 12
REMARK SMILES IDX 32 13 31 14 3 15 2 16 4 17 1 18 13 20 14 21 15 22 16 23
REMARK SMILES IDX 17 26 18 27 27 28 19 29 22 30 20 31 21 32 23 33 24 34 25 35
REMARK SMILES IDX 26 36
REMARK H PARENT 2 19 13 24 16 25
ROOT
ATOM      1  C   UNL     1     -13.640  -1.035  -9.842  1.00  0.00    +0.130 A 
ATOM      2  C   UNL     1     -12.313  -1.391 -10.100  1.00  0.00    +0.049 A 
ATOM      3  C   UNL     1     -11.462  -0.506 -10.774  1.00  0.00    +0.033 A 
ATOM      4  C   UNL     1     -11.931   0.743 -11.181  1.00  0.00    +0.079 A 
ATOM      5  C   UNL     1     -13.256   1.091 -10.882  1.00  0.00    +0.150 A 
ATOM      6  F   UNL     1     -13.718   2.299 -11.249  1.00  0.00    -0.205 F 
ATOM      7  C   UNL     1     -14.111   0.220 -10.215  1.00  0.00    +0.088 A 
ENDROOT
BRANCH   1   8
ATOM      8  O   UNL     1     -14.510  -1.850  -9.156  1.00  0.00    -0.457 OA
BRANCH   8   9
ATOM      9  C   UNL     1     -14.825  -1.497  -7.863  1.00  0.00    +0.131 A 
ATOM     10  C   UNL     1     -14.068  -0.935  -5.688  1.00  0.00    +0.131 A 
ATOM     11  C   UNL     1     -13.766  -1.325  -6.982  1.00  0.00    +0.081 A 
ATOM     12  N   UNL     1     -15.334  -0.698  -5.237  1.00  0.00    -0.251 NA
ATOM     13  C   UNL     1     -16.331  -0.855  -6.134  1.00  0.00    +0.116 A 
ATOM     14  C   UNL     1     -16.130  -1.243  -7.448  1.00  0.00    +0.067 A 
BRANCH  10  15
ATOM     15  C   UNL     1     -12.964  -0.744  -4.692  1.00  0.00    +0.269 C 
ATOM     16  N   UNL     1     -11.721  -1.138  -5.141  1.00  0.00    -0.354 N 
ATOM     17  O   UNL     1     -13.179  -0.283  -3.576  1.00  0.00    -0.268 OA
ATOM     18  C   UNL     1     -10.562  -1.152  -4.292  1.00  0.00    +0.143 C 
ATOM     19  H   UNL     1     -11.701  -1.596  -6.048  1.00  0.00    +0.163 HD
ENDBRANCH  10  15
ENDBRANCH   8   9
ENDBRANCH   1   8
BRANCH   4  20
ATOM     20  N   UNL     1     -11.153   1.708 -11.858  1.00  0.00    -0.305 N 
ATOM     21  C   UNL     1     -11.102   1.946 -13.221  1.00  0.00    +0.323 C 
ATOM     22  O   UNL     1     -11.807   1.389 -14.051  1.00  0.00    -0.248 OA
ATOM     23  N   UNL     1     -10.139   2.903 -13.507  1.00  0.00    -0.308 N 
ATOM     24  H   UNL     1     -10.703   2.385 -11.254  1.00  0.00    +0.171 HD
ATOM     25  H   UNL     1      -9.500   3.117 -12.756  1.00  0.00    +0.171 HD
BRANCH  23  26
ATOM     26  C   UNL     1      -9.846   3.478 -14.761  1.00  0.00    +0.043 A 
ATOM     27  C   UNL     1     -10.672   4.390 -15.415  1.00  0.00    +0.028 A 
ATOM     28  C   UNL     1      -8.635   3.114 -15.366  1.00  0.00    +0.040 A 
ATOM     29  C   UNL     1     -10.301   4.919 -16.654  1.00  0.00    +0.023 A 
ATOM     30  C   UNL     1      -8.245   3.640 -16.616  1.00  0.00    +0.076 A 
ATOM     31  C   UNL     1      -9.096   4.546 -17.253  1.00  0.00    +0.053 A 
ATOM     32 Cl   UNL     1      -8.712   5.247 -18.782  1.00  0.00    -0.084 Cl
BRANCH  30  33
ATOM     33  C   UNL     1      -6.938   3.221 -17.232  1.00  0.00    +0.417 C 
ATOM     34  F   UNL     1      -6.114   4.269 -17.503  1.00  0.00    -0.166 F 
ATOM     35  F   UNL     1      -7.090   2.533 -18.397  1.00  0.00    -0.166 F 
ATOM     36  F   UNL     1      -6.213   2.395 -16.420  1.00  0.00    -0.166 F 
ENDBRANCH  30  33
ENDBRANCH  23  26
ENDBRANCH   4  20
TORSDOF 6
ENDMDL
MODEL 10
REMARK VINA RESULT:    -8.114      5.060     11.723
REMARK INTER + INTRA:         -12.115
REMARK INTER:                 -11.127
REMARK INTRA:                  -0.988
REMARK UNBOUND:                -1.155
REMARK SMILES CNC(=O)c1cc(Oc2ccc(NC(=O)Nc3ccc(Cl)c(C(F)(F)F)c3)c(F)c2)ccn1
REMARK SMILES IDX 9 1 10 2 11 3 12 4 28 5 29 6 30 7 8 8 7 9 5 10 6 11 33 12
REMARK SMILES IDX 32 13 31 14 3 15 2 16 4 17 1 18 13 20 14 21 15 22 16 23
REMARK SMILES IDX 17 26 18 27 27 28 19 29 22 30 20 31 21 32 23 33 24 34 25 35
REMARK SMILES IDX 26 36
REMARK H PARENT 2 19 13 24 16 25
ROOT
ATOM      1  C   UNL     1      -7.922   0.573 -15.593  1.00  0.00    +0.130 A 
ATOM      2  C   UNL     1      -7.186  -0.086 -14.604  1.00  0.00    +0.049 A 
ATOM      3  C   UNL     1      -7.776  -0.394 -13.371  1.00  0.00    +0.033 A 
ATOM      4  C   UNL     1      -9.108  -0.056 -13.128  1.00  0.00    +0.079 A 
ATOM      5  C   UNL     1      -9.835   0.574 -14.147  1.00  0.00    +0.150 A 
ATOM      6  F   UNL     1     -11.125   0.889 -13.936  1.00  0.00    -0.205 F 
ATOM      7  C   UNL     1      -9.259   0.887 -15.374  1.00  0.00    +0.088 A 
ENDROOT
BRANCH   1   8
ATOM      8  O   UNL     1      -7.405   0.871 -16.832  1.00  0.00    -0.457 OA
BRANCH   8   9
ATOM      9  C   UNL     1      -6.967   2.159 -17.044  1.00  0.00    +0.131 A 
ATOM     10  C   UNL     1      -7.416   4.323 -17.903  1.00  0.00    +0.131 A 
ATOM     11  C   UNL     1      -7.831   3.015 -17.714  1.00  0.00    +0.081 A 
ATOM     12  N   UNL     1      -6.224   4.818 -17.458  1.00  0.00    -0.251 NA
ATOM     13  C   UNL     1      -5.427   3.957 -16.791  1.00  0.00    +0.116 A 
ATOM     14  C   UNL     1      -5.753   2.632 -16.554  1.00  0.00    +0.067 A 
BRANCH  10  15
ATOM     15  C   UNL     1      -8.304   5.288 -18.629  1.00  0.00    +0.269 C 
ATOM     16  N   UNL     1      -9.585   5.371 -18.123  1.00  0.00    -0.354 N 
ATOM     17  O   UNL     1      -7.902   5.929 -19.594  1.00  0.00    -0.268 OA
ATOM     18  C   UNL     1     -10.617   6.143 -18.757  1.00  0.00    +0.143 C 
ATOM     19  H   UNL     1      -9.814   4.711 -17.384  1.00  0.00    +0.163 HD
ENDBRANCH  10  15
ENDBRANCH   8   9
ENDBRANCH   1   8
BRANCH   4  20
ATOM     20  N   UNL     1      -9.795  -0.330 -11.925  1.00  0.00    -0.305 N 
ATOM     21  C   UNL     1     -10.574  -1.437 -11.631  1.00  0.00    +0.323 C 
ATOM     22  O   UNL     1     -10.716  -2.403 -12.369  1.00  0.00    -0.248 OA
ATOM     23  N   UNL     1     -11.167  -1.291 -10.385  1.00  0.00    -0.308 N 
ATOM     24  H   UNL     1      -9.562   0.287 -11.157  1.00  0.00    +0.171 HD
ATOM     25  H   UNL     1     -11.129  -0.364  -9.990  1.00  0.00    +0.171 HD
BRANCH  23  26
ATOM     26  C   UNL     1     -11.958  -2.233  -9.696  1.00  0.00    +0.043 A 
ATOM     27  C   UNL     1     -11.566  -3.546  -9.441  1.00  0.00    +0.028 A 
ATOM     28  C   UNL     1     -13.206  -1.801  -9.226  1.00  0.00    +0.040 A 
ATOM     29  C   UNL     1     -12.409  -4.413  -8.742  1.00  0.00    +0.023 A 
ATOM     30  C   UNL     1     -14.070  -2.664  -8.518  1.00  0.00    +0.076 A 
ATOM     31  C   UNL     1     -13.654  -3.977  -8.283  1.00  0.00    +0.053 A 
ATOM     32 Cl   UNL     1     -14.633  -5.111  -7.426  1.00  0.00    -0.084 Cl
BRANCH  30  33
ATOM     33  C   UNL     1     -15.402  -2.161  -8.034  1.00  0.00    +0.417 C 
ATOM     34  F   UNL     1     -15.568  -2.295  -6.690  1.00  0.00    -0.166 F 
ATOM     35  F   UNL     1     -16.457  -2.789  -8.621  1.00  0.00    -0.166 F 
ATOM     36  F   UNL     1     -15.589  -0.833  -8.288  1.00  0.00    -0.166 F 
ENDBRANCH  30  33
ENDBRANCH  23  26
ENDBRANCH   4  20
TORSDOF 6
ENDMDL
