MODEL 1
REMARK VINA RESULT:    -9.915      0.000      0.000
REMARK INTER + INTRA:         -13.489
REMARK INTER:                 -13.103
REMARK INTRA:                  -0.385
REMARK UNBOUND:                -0.385
REMARK SMILES CC1(COc2ccc3c(c2)ncn3-c2ccc3cccc(N4CCC(N)CC4)c3n2)COC1
REMARK SMILES IDX 5 1 6 2 7 3 8 4 9 5 10 6 11 7 12 8 13 9 4 10 3 11 2 12 31 13
REMARK SMILES IDX 33 14 32 15 1 16 14 17 15 18 30 19 16 20 29 21 17 22 21 23
REMARK SMILES IDX 18 24 20 25 19 26 22 27 23 28 28 29 24 30 27 31 25 32 26 33
REMARK H PARENT 26 34 26 35
ROOT
ATOM      1  C   UNL     1     -39.111 162.260  -2.242  1.00  0.00    +0.121 A 
ATOM      2  C   UNL     1     -38.982 161.154  -3.079  1.00  0.00    +0.049 A 
ATOM      3  C   UNL     1     -38.649 161.296  -4.437  1.00  0.00    +0.033 A 
ATOM      4  C   UNL     1     -38.426 162.590  -4.936  1.00  0.00    +0.075 A 
ATOM      5  C   UNL     1     -38.599 163.710  -4.116  1.00  0.00    +0.093 A 
ATOM      6  C   UNL     1     -38.929 163.545  -2.762  1.00  0.00    +0.077 A 
ATOM      7  N   UNL     1     -38.435 164.876  -4.809  1.00  0.00    -0.236 NA
ATOM      8  C   UNL     1     -38.168 164.498  -6.037  1.00  0.00    +0.206 A 
ATOM      9  N   UNL     1     -38.085 163.126  -6.176  1.00  0.00    -0.283 N 
ENDROOT
BRANCH   1  10
ATOM     10  O   UNL     1     -39.431 162.228  -0.912  1.00  0.00    -0.493 OA
BRANCH  10  11
ATOM     11  C   UNL     1     -38.888 161.163  -0.129  1.00  0.00    +0.241 C 
BRANCH  11  12
ATOM     12  C   UNL     1     -39.998 160.143   0.131  1.00  0.00    +0.048 C 
ATOM     13  C   UNL     1     -39.853 159.439   1.492  1.00  0.00    +0.172 C 
ATOM     14  C   UNL     1     -39.700 158.746  -0.443  1.00  0.00    +0.172 C 
ATOM     15  O   UNL     1     -39.276 158.269   0.863  1.00  0.00    -0.380 OA
ATOM     16  C   UNL     1     -41.395 160.681  -0.148  1.00  0.00    +0.020 C 
ENDBRANCH  11  12
ENDBRANCH  10  11
ENDBRANCH   1  10
BRANCH   9  17
ATOM     17  C   UNL     1     -37.715 162.499  -7.401  1.00  0.00    +0.139 A 
ATOM     18  C   UNL     1     -37.680 161.124  -7.540  1.00  0.00    +0.048 A 
ATOM     19  N   UNL     1     -37.362 163.328  -8.416  1.00  0.00    -0.228 NA
ATOM     20  C   UNL     1     -37.302 160.595  -8.771  1.00  0.00    +0.014 A 
ATOM     21  C   UNL     1     -36.996 162.836  -9.626  1.00  0.00    +0.096 A 
ATOM     22  C   UNL     1     -36.956 161.441  -9.832  1.00  0.00    +0.002 A 
ATOM     23  C   UNL     1     -36.630 163.695 -10.700  1.00  0.00    +0.063 A 
ATOM     24  C   UNL     1     -36.567 160.904 -11.067  1.00  0.00    +0.010 A 
ATOM     25  C   UNL     1     -36.235 163.124 -11.927  1.00  0.00    +0.028 A 
ATOM     26  C   UNL     1     -36.206 161.745 -12.111  1.00  0.00    +0.003 A 
BRANCH  23  27
ATOM     27  N   UNL     1     -36.655 165.104 -10.527  1.00  0.00    -0.370 N 
ATOM     28  C   UNL     1     -37.975 165.611 -10.115  1.00  0.00    +0.118 C 
ATOM     29  C   UNL     1     -35.966 165.942 -11.515  1.00  0.00    +0.118 C 
ATOM     30  C   UNL     1     -37.821 167.012  -9.522  1.00  0.00    +0.040 C 
ATOM     31  C   UNL     1     -35.763 167.342 -10.938  1.00  0.00    +0.040 C 
ATOM     32  C   UNL     1     -37.072 167.973 -10.454  1.00  0.00    +0.054 C 
BRANCH  32  33
ATOM     33  N   UNL     1     -37.903 168.402 -11.588  1.00  0.00    -0.328 NA
ATOM     34  H   UNL     1     -37.300 168.637 -12.376  1.00  0.00    +0.119 HD
ATOM     35  H   UNL     1     -38.410 169.255 -11.359  1.00  0.00    +0.119 HD
ENDBRANCH  32  33
ENDBRANCH  23  27
ENDBRANCH   9  17
TORSDOF 6
ENDMDL
MODEL 2
REMARK VINA RESULT:    -9.856      1.810      4.037
REMARK INTER + INTRA:         -13.410
REMARK INTER:                 -13.035
REMARK INTRA:                  -0.375
REMARK UNBOUND:                -0.385
REMARK SMILES CC1(COc2ccc3c(c2)ncn3-c2ccc3cccc(N4CCC(N)CC4)c3n2)COC1
REMARK SMILES IDX 5 1 6 2 7 3 8 4 9 5 10 6 11 7 12 8 13 9 4 10 3 11 2 12 31 13
REMARK SMILES IDX 33 14 32 15 1 16 14 17 15 18 30 19 16 20 29 21 17 22 21 23
REMARK SMILES IDX 18 24 20 25 19 26 22 27 23 28 28 29 24 30 27 31 25 32 26 33
REMARK H PARENT 26 34 26 35
ROOT
ATOM      1  C   UNL     1     -39.325 162.105  -1.344  1.00  0.00    +0.121 A 
ATOM      2  C   UNL     1     -38.971 163.379  -1.783  1.00  0.00    +0.049 A 
ATOM      3  C   UNL     1     -38.701 163.640  -3.137  1.00  0.00    +0.033 A 
ATOM      4  C   UNL     1     -38.815 162.582  -4.055  1.00  0.00    +0.075 A 
ATOM      5  C   UNL     1     -39.123 161.289  -3.618  1.00  0.00    +0.093 A 
ATOM      6  C   UNL     1     -39.392 161.052  -2.261  1.00  0.00    +0.077 A 
ATOM      7  N   UNL     1     -39.088 160.387  -4.643  1.00  0.00    -0.236 NA
ATOM      8  C   UNL     1     -38.763 161.095  -5.699  1.00  0.00    +0.206 A 
ATOM      9  N   UNL     1     -38.642 162.444  -5.430  1.00  0.00    -0.283 N 
ENDROOT
BRANCH   1  10
ATOM     10  O   UNL     1     -39.606 161.749  -0.053  1.00  0.00    -0.493 OA
BRANCH  10  11
ATOM     11  C   UNL     1     -38.679 160.886   0.608  1.00  0.00    +0.241 C 
BRANCH  11  12
ATOM     12  C   UNL     1     -39.388 159.567   0.919  1.00  0.00    +0.048 C 
ATOM     13  C   UNL     1     -38.868 158.900   2.205  1.00  0.00    +0.172 C 
ATOM     14  C   UNL     1     -38.758 158.347   0.223  1.00  0.00    +0.172 C 
ATOM     15  O   UNL     1     -38.049 157.984   1.438  1.00  0.00    -0.380 OA
ATOM     16  C   UNL     1     -40.905 159.658   0.834  1.00  0.00    +0.020 C 
ENDBRANCH  11  12
ENDBRANCH  10  11
ENDBRANCH   1  10
BRANCH   9  17
ATOM     17  C   UNL     1     -38.385 163.410  -6.447  1.00  0.00    +0.139 A 
ATOM     18  C   UNL     1     -38.495 164.768  -6.213  1.00  0.00    +0.048 A 
ATOM     19  N   UNL     1     -38.062 162.920  -7.671  1.00  0.00    -0.228 NA
ATOM     20  C   UNL     1     -38.232 165.641  -7.265  1.00  0.00    +0.014 A 
ATOM     21  C   UNL     1     -37.796 163.752  -8.709  1.00  0.00    +0.096 A 
ATOM     22  C   UNL     1     -37.876 165.149  -8.526  1.00  0.00    +0.002 A 
ATOM     23  C   UNL     1     -37.450 163.251  -9.996  1.00  0.00    +0.063 A 
ATOM     24  C   UNL     1     -37.622 166.031  -9.585  1.00  0.00    +0.010 A 
ATOM     25  C   UNL     1     -37.208 164.164 -11.042  1.00  0.00    +0.028 A 
ATOM     26  C   UNL     1     -37.289 165.538 -10.840  1.00  0.00    +0.003 A 
BRANCH  23  27
ATOM     27  N   UNL     1     -37.363 161.851 -10.216  1.00  0.00    -0.370 N 
ATOM     28  C   UNL     1     -36.473 161.171  -9.260  1.00  0.00    +0.118 C 
ATOM     29  C   UNL     1     -37.252 161.367 -11.597  1.00  0.00    +0.118 C 
ATOM     30  C   UNL     1     -36.773 159.671  -9.261  1.00  0.00    +0.040 C 
ATOM     31  C   UNL     1     -37.583 159.875 -11.638  1.00  0.00    +0.040 C 
ATOM     32  C   UNL     1     -36.728 159.057 -10.666  1.00  0.00    +0.054 C 
BRANCH  32  33
ATOM     33  N   UNL     1     -35.352 158.915 -11.163  1.00  0.00    -0.328 NA
ATOM     34  H   UNL     1     -35.047 157.950 -11.034  1.00  0.00    +0.119 HD
ATOM     35  H   UNL     1     -34.712 159.487 -10.616  1.00  0.00    +0.119 HD
ENDBRANCH  32  33
ENDBRANCH  23  27
ENDBRANCH   9  17
TORSDOF 6
ENDMDL
MODEL 3
REMARK VINA RESULT:    -9.317      1.760      4.135
REMARK INTER + INTRA:         -12.698
REMARK INTER:                 -12.103
REMARK INTRA:                  -0.596
REMARK UNBOUND:                -0.385
REMARK SMILES CC1(COc2ccc3c(c2)ncn3-c2ccc3cccc(N4CCC(N)CC4)c3n2)COC1
REMARK SMILES IDX 5 1 6 2 7 3 8 4 9 5 10 6 11 7 12 8 13 9 4 10 3 11 2 12 31 13
REMARK SMILES IDX 33 14 32 15 1 16 14 17 15 18 30 19 16 20 29 21 17 22 21 23
REMARK SMILES IDX 18 24 20 25 19 26 22 27 23 28 28 29 24 30 27 31 25 32 26 33
REMARK H PARENT 26 34 26 35
ROOT
ATOM      1  C   UNL     1     -39.042 160.784  -3.686  1.00  0.00    +0.121 A 
ATOM      2  C   UNL     1     -38.963 160.579  -5.061  1.00  0.00    +0.049 A 
ATOM      3  C   UNL     1     -38.729 161.642  -5.950  1.00  0.00    +0.033 A 
ATOM      4  C   UNL     1     -38.556 162.930  -5.416  1.00  0.00    +0.075 A 
ATOM      5  C   UNL     1     -38.682 163.155  -4.041  1.00  0.00    +0.093 A 
ATOM      6  C   UNL     1     -38.911 162.078  -3.172  1.00  0.00    +0.077 A 
ATOM      7  N   UNL     1     -38.579 164.482  -3.734  1.00  0.00    -0.236 NA
ATOM      8  C   UNL     1     -38.398 165.078  -4.889  1.00  0.00    +0.206 A 
ATOM      9  N   UNL     1     -38.311 164.195  -5.947  1.00  0.00    -0.283 N 
ENDROOT
BRANCH   1  10
ATOM     10  O   UNL     1     -39.265 159.820  -2.741  1.00  0.00    -0.493 OA
BRANCH  10  11
ATOM     11  C   UNL     1     -38.276 159.655  -1.723  1.00  0.00    +0.241 C 
BRANCH  11  12
ATOM     12  C   UNL     1     -38.987 159.571  -0.371  1.00  0.00    +0.048 C 
ATOM     13  C   UNL     1     -40.500 159.834  -0.476  1.00  0.00    +0.172 C 
ATOM     14  C   UNL     1     -38.975 160.895   0.416  1.00  0.00    +0.172 C 
ATOM     15  O   UNL     1     -40.329 161.197  -0.015  1.00  0.00    -0.380 OA
ATOM     16  C   UNL     1     -38.624 158.330   0.431  1.00  0.00    +0.020 C 
ENDBRANCH  11  12
ENDBRANCH  10  11
ENDBRANCH   1  10
BRANCH   9  17
ATOM     17  C   UNL     1     -38.024 164.616  -7.278  1.00  0.00    +0.139 A 
ATOM     18  C   UNL     1     -38.092 165.943  -7.657  1.00  0.00    +0.048 A 
ATOM     19  N   UNL     1     -37.714 163.635  -8.164  1.00  0.00    -0.228 NA
ATOM     20  C   UNL     1     -37.800 166.267  -8.980  1.00  0.00    +0.014 A 
ATOM     21  C   UNL     1     -37.420 163.927  -9.455  1.00  0.00    +0.096 A 
ATOM     22  C   UNL     1     -37.459 165.266  -9.898  1.00  0.00    +0.002 A 
ATOM     23  C   UNL     1     -37.089 162.908 -10.393  1.00  0.00    +0.063 A 
ATOM     24  C   UNL     1     -37.175 165.594 -11.230  1.00  0.00    +0.010 A 
ATOM     25  C   UNL     1     -36.817 163.270 -11.727  1.00  0.00    +0.028 A 
ATOM     26  C   UNL     1     -36.856 164.597 -12.143  1.00  0.00    +0.003 A 
BRANCH  23  27
ATOM     27  N   UNL     1     -37.044 161.549  -9.982  1.00  0.00    -0.370 N 
ATOM     28  C   UNL     1     -36.187 161.330  -8.805  1.00  0.00    +0.118 C 
ATOM     29  C   UNL     1     -36.933 160.512 -11.015  1.00  0.00    +0.118 C 
ATOM     30  C   UNL     1     -36.535 159.986  -8.164  1.00  0.00    +0.040 C 
ATOM     31  C   UNL     1     -37.312 159.158 -10.414  1.00  0.00    +0.040 C 
ATOM     32  C   UNL     1     -36.494 158.822  -9.163  1.00  0.00    +0.054 C 
BRANCH  32  33
ATOM     33  N   UNL     1     -35.118 158.445  -9.516  1.00  0.00    -0.328 NA
ATOM     34  H   UNL     1     -34.761 157.790  -8.821  1.00  0.00    +0.119 HD
ATOM     35  H   UNL     1     -34.504 159.256  -9.479  1.00  0.00    +0.119 HD
ENDBRANCH  32  33
ENDBRANCH  23  27
ENDBRANCH   9  17
TORSDOF 6
ENDMDL
MODEL 4
REMARK VINA RESULT:    -8.909     14.900     17.332
REMARK INTER + INTRA:         -12.158
REMARK INTER:                 -11.016
REMARK INTRA:                  -1.143
REMARK UNBOUND:                -0.385
REMARK SMILES CC1(COc2ccc3c(c2)ncn3-c2ccc3cccc(N4CCC(N)CC4)c3n2)COC1
REMARK SMILES IDX 5 1 6 2 7 3 8 4 9 5 10 6 11 7 12 8 13 9 4 10 3 11 2 12 31 13
REMARK SMILES IDX 33 14 32 15 1 16 14 17 15 18 30 19 16 20 29 21 17 22 21 23
REMARK SMILES IDX 18 24 20 25 19 26 22 27 23 28 28 29 24 30 27 31 25 32 26 33
REMARK H PARENT 26 34 26 35
ROOT
ATOM      1  C   UNL     1     -36.021 153.760   6.940  1.00  0.00    +0.121 A 
ATOM      2  C   UNL     1     -37.249 153.690   6.284  1.00  0.00    +0.049 A 
ATOM      3  C   UNL     1     -37.663 152.520   5.626  1.00  0.00    +0.033 A 
ATOM      4  C   UNL     1     -36.814 151.401   5.659  1.00  0.00    +0.075 A 
ATOM      5  C   UNL     1     -35.560 151.476   6.273  1.00  0.00    +0.093 A 
ATOM      6  C   UNL     1     -35.167 152.653   6.928  1.00  0.00    +0.077 A 
ATOM      7  N   UNL     1     -34.847 150.321   6.112  1.00  0.00    -0.236 NA
ATOM      8  C   UNL     1     -35.633 149.540   5.409  1.00  0.00    +0.206 A 
ATOM      9  N   UNL     1     -36.867 150.105   5.150  1.00  0.00    -0.283 N 
ENDROOT
BRANCH   1  10
ATOM     10  O   UNL     1     -35.528 154.848   7.606  1.00  0.00    -0.493 OA
BRANCH  10  11
ATOM     11  C   UNL     1     -34.290 155.395   7.147  1.00  0.00    +0.241 C 
BRANCH  11  12
ATOM     12  C   UNL     1     -34.599 156.580   6.231  1.00  0.00    +0.048 C 
ATOM     13  C   UNL     1     -34.781 156.165   4.760  1.00  0.00    +0.172 C 
ATOM     14  C   UNL     1     -33.342 157.298   5.705  1.00  0.00    +0.172 C 
ATOM     15  O   UNL     1     -33.435 156.594   4.438  1.00  0.00    -0.380 OA
ATOM     16  C   UNL     1     -35.698 157.489   6.763  1.00  0.00    +0.020 C 
ENDBRANCH  11  12
ENDBRANCH  10  11
ENDBRANCH   1  10
BRANCH   9  17
ATOM     17  C   UNL     1     -37.910 149.399   4.483  1.00  0.00    +0.139 A 
ATOM     18  C   UNL     1     -39.192 149.327   4.996  1.00  0.00    +0.048 A 
ATOM     19  N   UNL     1     -37.566 148.769   3.331  1.00  0.00    -0.228 NA
ATOM     20  C   UNL     1     -40.149 148.612   4.281  1.00  0.00    +0.014 A 
ATOM     21  C   UNL     1     -38.482 148.071   2.615  1.00  0.00    +0.096 A 
ATOM     22  C   UNL     1     -39.811 147.975   3.080  1.00  0.00    +0.002 A 
ATOM     23  C   UNL     1     -38.135 147.410   1.403  1.00  0.00    +0.063 A 
ATOM     24  C   UNL     1     -40.774 147.248   2.369  1.00  0.00    +0.010 A 
ATOM     25  C   UNL     1     -39.125 146.680   0.715  1.00  0.00    +0.028 A 
ATOM     26  C   UNL     1     -40.431 146.601   1.189  1.00  0.00    +0.003 A 
BRANCH  23  27
ATOM     27  N   UNL     1     -36.806 147.483   0.907  1.00  0.00    -0.370 N 
ATOM     28  C   UNL     1     -36.569 148.666   0.062  1.00  0.00    +0.118 C 
ATOM     29  C   UNL     1     -36.176 146.252   0.415  1.00  0.00    +0.118 C 
ATOM     30  C   UNL     1     -35.065 148.917  -0.053  1.00  0.00    +0.040 C 
ATOM     31  C   UNL     1     -34.665 146.459   0.323  1.00  0.00    +0.040 C 
ATOM     32  C   UNL     1     -34.290 147.680  -0.521  1.00  0.00    +0.054 C 
BRANCH  32  33
ATOM     33  N   UNL     1     -34.487 147.414  -1.953  1.00  0.00    -0.328 NA
ATOM     34  H   UNL     1     -34.246 146.443  -2.150  1.00  0.00    +0.119 HD
ATOM     35  H   UNL     1     -33.853 147.979  -2.514  1.00  0.00    +0.119 HD
ENDBRANCH  32  33
ENDBRANCH  23  27
ENDBRANCH   9  17
TORSDOF 6
ENDMDL
MODEL 5
REMARK VINA RESULT:    -8.818     14.575     17.288
REMARK INTER + INTRA:         -12.038
REMARK INTER:                 -10.837
REMARK INTRA:                  -1.202
REMARK UNBOUND:                -0.385
REMARK SMILES CC1(COc2ccc3c(c2)ncn3-c2ccc3cccc(N4CCC(N)CC4)c3n2)COC1
REMARK SMILES IDX 5 1 6 2 7 3 8 4 9 5 10 6 11 7 12 8 13 9 4 10 3 11 2 12 31 13
REMARK SMILES IDX 33 14 32 15 1 16 14 17 15 18 30 19 16 20 29 21 17 22 21 23
REMARK SMILES IDX 18 24 20 25 19 26 22 27 23 28 28 29 24 30 27 31 25 32 26 33
REMARK H PARENT 26 34 26 35
ROOT
ATOM      1  C   UNL     1     -36.212 153.674   6.804  1.00  0.00    +0.121 A 
ATOM      2  C   UNL     1     -37.418 153.591   6.111  1.00  0.00    +0.049 A 
ATOM      3  C   UNL     1     -37.815 152.408   5.466  1.00  0.00    +0.033 A 
ATOM      4  C   UNL     1     -36.969 151.289   5.549  1.00  0.00    +0.075 A 
ATOM      5  C   UNL     1     -35.734 151.375   6.201  1.00  0.00    +0.093 A 
ATOM      6  C   UNL     1     -35.360 152.566   6.842  1.00  0.00    +0.077 A 
ATOM      7  N   UNL     1     -35.019 150.216   6.086  1.00  0.00    -0.236 NA
ATOM      8  C   UNL     1     -35.785 149.422   5.376  1.00  0.00    +0.206 A 
ATOM      9  N   UNL     1     -37.009 149.983   5.067  1.00  0.00    -0.283 N 
ENDROOT
BRANCH   1  10
ATOM     10  O   UNL     1     -35.737 154.775   7.462  1.00  0.00    -0.493 OA
BRANCH  10  11
ATOM     11  C   UNL     1     -36.511 155.974   7.384  1.00  0.00    +0.241 C 
BRANCH  11  12
ATOM     12  C   UNL     1     -35.758 156.977   6.510  1.00  0.00    +0.048 C 
ATOM     13  C   UNL     1     -36.399 158.377   6.522  1.00  0.00    +0.172 C 
ATOM     14  C   UNL     1     -36.198 156.965   5.035  1.00  0.00    +0.172 C 
ATOM     15  O   UNL     1     -37.037 158.132   5.246  1.00  0.00    -0.380 OA
ATOM     16  C   UNL     1     -34.254 156.978   6.745  1.00  0.00    +0.020 C 
ENDBRANCH  11  12
ENDBRANCH  10  11
ENDBRANCH   1  10
BRANCH   9  17
ATOM     17  C   UNL     1     -38.032 149.264   4.382  1.00  0.00    +0.139 A 
ATOM     18  C   UNL     1     -39.320 149.172   4.877  1.00  0.00    +0.048 A 
ATOM     19  N   UNL     1     -37.663 148.643   3.233  1.00  0.00    -0.228 NA
ATOM     20  C   UNL     1     -40.256 148.445   4.146  1.00  0.00    +0.014 A 
ATOM     21  C   UNL     1     -38.559 147.935   2.502  1.00  0.00    +0.096 A 
ATOM     22  C   UNL     1     -39.892 147.818   2.948  1.00  0.00    +0.002 A 
ATOM     23  C   UNL     1     -38.185 147.283   1.293  1.00  0.00    +0.063 A 
ATOM     24  C   UNL     1     -40.835 147.079   2.220  1.00  0.00    +0.010 A 
ATOM     25  C   UNL     1     -39.154 146.541   0.588  1.00  0.00    +0.028 A 
ATOM     26  C   UNL     1     -40.465 146.442   1.044  1.00  0.00    +0.003 A 
BRANCH  23  27
ATOM     27  N   UNL     1     -36.850 147.377   0.815  1.00  0.00    -0.370 N 
ATOM     28  C   UNL     1     -36.637 148.526  -0.080  1.00  0.00    +0.118 C 
ATOM     29  C   UNL     1     -36.172 146.146   0.393  1.00  0.00    +0.118 C 
ATOM     30  C   UNL     1     -35.140 148.822  -0.183  1.00  0.00    +0.040 C 
ATOM     31  C   UNL     1     -34.667 146.399   0.317  1.00  0.00    +0.040 C 
ATOM     32  C   UNL     1     -34.316 147.591  -0.578  1.00  0.00    +0.054 C 
BRANCH  32  33
ATOM     33  N   UNL     1     -34.479 147.251  -1.999  1.00  0.00    -0.328 NA
ATOM     34  H   UNL     1     -35.455 147.378  -2.265  1.00  0.00    +0.119 HD
ATOM     35  H   UNL     1     -34.270 146.268  -2.158  1.00  0.00    +0.119 HD
ENDBRANCH  32  33
ENDBRANCH  23  27
ENDBRANCH   9  17
TORSDOF 6
ENDMDL
MODEL 6
REMARK VINA RESULT:    -8.485     14.269     17.508
REMARK INTER + INTRA:         -11.599
REMARK INTER:                 -10.421
REMARK INTRA:                  -1.178
REMARK UNBOUND:                -0.385
REMARK SMILES CC1(COc2ccc3c(c2)ncn3-c2ccc3cccc(N4CCC(N)CC4)c3n2)COC1
REMARK SMILES IDX 5 1 6 2 7 3 8 4 9 5 10 6 11 7 12 8 13 9 4 10 3 11 2 12 31 13
REMARK SMILES IDX 33 14 32 15 1 16 14 17 15 18 30 19 16 20 29 21 17 22 21 23
REMARK SMILES IDX 18 24 20 25 19 26 22 27 23 28 28 29 24 30 27 31 25 32 26 33
REMARK H PARENT 26 34 26 35
ROOT
ATOM      1  C   UNL     1     -36.476 152.659   6.044  1.00  0.00    +0.121 A 
ATOM      2  C   UNL     1     -35.362 151.822   6.031  1.00  0.00    +0.049 A 
ATOM      3  C   UNL     1     -35.436 150.510   5.532  1.00  0.00    +0.033 A 
ATOM      4  C   UNL     1     -36.665 150.060   5.022  1.00  0.00    +0.075 A 
ATOM      5  C   UNL     1     -37.801 150.876   5.074  1.00  0.00    +0.093 A 
ATOM      6  C   UNL     1     -37.703 152.184   5.574  1.00  0.00    +0.077 A 
ATOM      7  N   UNL     1     -38.914 150.224   4.624  1.00  0.00    -0.236 NA
ATOM      8  C   UNL     1     -38.489 149.025   4.299  1.00  0.00    +0.206 A 
ATOM      9  N   UNL     1     -37.125 148.873   4.456  1.00  0.00    -0.283 N 
ENDROOT
BRANCH   1  10
ATOM     10  O   UNL     1     -36.508 153.946   6.507  1.00  0.00    -0.493 OA
BRANCH  10  11
ATOM     11  C   UNL     1     -36.248 154.991   5.567  1.00  0.00    +0.241 C 
BRANCH  11  12
ATOM     12  C   UNL     1     -34.889 155.608   5.898  1.00  0.00    +0.048 C 
ATOM     13  C   UNL     1     -34.573 156.847   5.040  1.00  0.00    +0.172 C 
ATOM     14  C   UNL     1     -33.718 154.975   5.125  1.00  0.00    +0.172 C 
ATOM     15  O   UNL     1     -33.721 156.067   4.167  1.00  0.00    -0.380 OA
ATOM     16  C   UNL     1     -34.658 155.807   7.389  1.00  0.00    +0.020 C 
ENDBRANCH  11  12
ENDBRANCH  10  11
ENDBRANCH   1  10
BRANCH   9  17
ATOM     17  C   UNL     1     -36.436 147.684   4.076  1.00  0.00    +0.139 A 
ATOM     18  C   UNL     1     -35.994 146.764   5.009  1.00  0.00    +0.048 A 
ATOM     19  N   UNL     1     -36.207 147.522   2.748  1.00  0.00    -0.228 NA
ATOM     20  C   UNL     1     -35.325 145.632   4.551  1.00  0.00    +0.014 A 
ATOM     21  C   UNL     1     -35.562 146.425   2.279  1.00  0.00    +0.096 A 
ATOM     22  C   UNL     1     -35.101 145.444   3.182  1.00  0.00    +0.002 A 
ATOM     23  C   UNL     1     -35.320 146.240   0.889  1.00  0.00    +0.063 A 
ATOM     24  C   UNL     1     -34.418 144.307   2.726  1.00  0.00    +0.010 A 
ATOM     25  C   UNL     1     -34.624 145.091   0.463  1.00  0.00    +0.028 A 
ATOM     26  C   UNL     1     -34.180 144.133   1.369  1.00  0.00    +0.003 A 
BRANCH  23  27
ATOM     27  N   UNL     1     -35.768 147.210  -0.048  1.00  0.00    -0.370 N 
ATOM     28  C   UNL     1     -36.234 146.617  -1.313  1.00  0.00    +0.118 C 
ATOM     29  C   UNL     1     -34.984 148.440  -0.207  1.00  0.00    +0.118 C 
ATOM     30  C   UNL     1     -37.096 147.633  -2.064  1.00  0.00    +0.040 C 
ATOM     31  C   UNL     1     -35.833 149.490  -0.924  1.00  0.00    +0.040 C 
ATOM     32  C   UNL     1     -36.394 148.982  -2.256  1.00  0.00    +0.054 C 
BRANCH  32  33
ATOM     33  N   UNL     1     -35.344 148.919  -3.282  1.00  0.00    -0.328 NA
ATOM     34  H   UNL     1     -34.496 149.356  -2.922  1.00  0.00    +0.119 HD
ATOM     35  H   UNL     1     -35.611 149.458  -4.103  1.00  0.00    +0.119 HD
ENDBRANCH  32  33
ENDBRANCH  23  27
ENDBRANCH   9  17
TORSDOF 6
ENDMDL
MODEL 7
REMARK VINA RESULT:    -8.336     15.806     17.647
REMARK INTER + INTRA:         -11.402
REMARK INTER:                 -10.165
REMARK INTRA:                  -1.237
REMARK UNBOUND:                -0.385
REMARK SMILES CC1(COc2ccc3c(c2)ncn3-c2ccc3cccc(N4CCC(N)CC4)c3n2)COC1
REMARK SMILES IDX 5 1 6 2 7 3 8 4 9 5 10 6 11 7 12 8 13 9 4 10 3 11 2 12 31 13
REMARK SMILES IDX 33 14 32 15 1 16 14 17 15 18 30 19 16 20 29 21 17 22 21 23
REMARK SMILES IDX 18 24 20 25 19 26 22 27 23 28 28 29 24 30 27 31 25 32 26 33
REMARK H PARENT 26 34 26 35
ROOT
ATOM      1  C   UNL     1     -37.213 151.927   6.019  1.00  0.00    +0.121 A 
ATOM      2  C   UNL     1     -38.305 151.928   5.154  1.00  0.00    +0.049 A 
ATOM      3  C   UNL     1     -38.567 150.844   4.301  1.00  0.00    +0.033 A 
ATOM      4  C   UNL     1     -37.707 149.734   4.350  1.00  0.00    +0.075 A 
ATOM      5  C   UNL     1     -36.580 149.742   5.179  1.00  0.00    +0.093 A 
ATOM      6  C   UNL     1     -36.339 150.835   6.027  1.00  0.00    +0.077 A 
ATOM      7  N   UNL     1     -35.819 148.620   5.010  1.00  0.00    -0.236 NA
ATOM      8  C   UNL     1     -36.450 147.925   4.094  1.00  0.00    +0.206 A 
ATOM      9  N   UNL     1     -37.635 148.509   3.691  1.00  0.00    -0.283 N 
ENDROOT
BRANCH   1  10
ATOM     10  O   UNL     1     -36.872 152.929   6.885  1.00  0.00    -0.493 OA
BRANCH  10  11
ATOM     11  C   UNL     1     -35.486 153.089   7.195  1.00  0.00    +0.241 C 
BRANCH  11  12
ATOM     12  C   UNL     1     -34.926 154.218   6.328  1.00  0.00    +0.048 C 
ATOM     13  C   UNL     1     -34.276 155.339   7.159  1.00  0.00    +0.172 C 
ATOM     14  C   UNL     1     -35.964 155.300   5.978  1.00  0.00    +0.172 C 
ATOM     15  O   UNL     1     -35.457 156.167   7.027  1.00  0.00    -0.380 OA
ATOM     16  C   UNL     1     -34.074 153.728   5.167  1.00  0.00    +0.020 C 
ENDBRANCH  11  12
ENDBRANCH  10  11
ENDBRANCH   1  10
BRANCH   9  17
ATOM     17  C   UNL     1     -38.527 147.882   2.772  1.00  0.00    +0.139 A 
ATOM     18  C   UNL     1     -39.877 147.745   3.039  1.00  0.00    +0.048 A 
ATOM     19  N   UNL     1     -37.971 147.394   1.635  1.00  0.00    -0.228 NA
ATOM     20  C   UNL     1     -40.675 147.115   2.088  1.00  0.00    +0.014 A 
ATOM     21  C   UNL     1     -38.730 146.782   0.692  1.00  0.00    +0.096 A 
ATOM     22  C   UNL     1     -40.116 146.626   0.901  1.00  0.00    +0.002 A 
ATOM     23  C   UNL     1     -38.159 146.271  -0.508  1.00  0.00    +0.063 A 
ATOM     24  C   UNL     1     -40.922 145.984  -0.049  1.00  0.00    +0.010 A 
ATOM     25  C   UNL     1     -38.995 145.623  -1.440  1.00  0.00    +0.028 A 
ATOM     26  C   UNL     1     -40.361 145.483  -1.216  1.00  0.00    +0.003 A 
BRANCH  23  27
ATOM     27  N   UNL     1     -36.766 146.407  -0.749  1.00  0.00    -0.370 N 
ATOM     28  C   UNL     1     -36.463 146.941  -2.088  1.00  0.00    +0.118 C 
ATOM     29  C   UNL     1     -35.873 145.329  -0.310  1.00  0.00    +0.118 C 
ATOM     30  C   UNL     1     -35.030 147.475  -2.111  1.00  0.00    +0.040 C 
ATOM     31  C   UNL     1     -34.434 145.844  -0.286  1.00  0.00    +0.040 C 
ATOM     32  C   UNL     1     -34.003 146.444  -1.628  1.00  0.00    +0.054 C 
BRANCH  32  33
ATOM     33  N   UNL     1     -33.765 145.392  -2.626  1.00  0.00    -0.328 NA
ATOM     34  H   UNL     1     -34.615 145.246  -3.170  1.00  0.00    +0.119 HD
ATOM     35  H   UNL     1     -33.567 144.503  -2.170  1.00  0.00    +0.119 HD
ENDBRANCH  32  33
ENDBRANCH  23  27
ENDBRANCH   9  17
TORSDOF 6
ENDMDL
MODEL 8
REMARK VINA RESULT:    -8.282     14.771     18.825
REMARK INTER + INTRA:         -11.331
REMARK INTER:                 -10.117
REMARK INTRA:                  -1.214
REMARK UNBOUND:                -0.385
REMARK SMILES CC1(COc2ccc3c(c2)ncn3-c2ccc3cccc(N4CCC(N)CC4)c3n2)COC1
REMARK SMILES IDX 5 1 6 2 7 3 8 4 9 5 10 6 11 7 12 8 13 9 4 10 3 11 2 12 31 13
REMARK SMILES IDX 33 14 32 15 1 16 14 17 15 18 30 19 16 20 29 21 17 22 21 23
REMARK SMILES IDX 18 24 20 25 19 26 22 27 23 28 28 29 24 30 27 31 25 32 26 33
REMARK H PARENT 26 34 26 35
ROOT
ATOM      1  C   UNL     1     -37.508 147.150   0.443  1.00  0.00    +0.121 A 
ATOM      2  C   UNL     1     -36.521 146.817   1.369  1.00  0.00    +0.049 A 
ATOM      3  C   UNL     1     -36.578 147.271   2.697  1.00  0.00    +0.033 A 
ATOM      4  C   UNL     1     -37.673 148.061   3.085  1.00  0.00    +0.075 A 
ATOM      5  C   UNL     1     -38.644 148.441   2.152  1.00  0.00    +0.093 A 
ATOM      6  C   UNL     1     -38.570 147.973   0.831  1.00  0.00    +0.077 A 
ATOM      7  N   UNL     1     -39.568 149.287   2.698  1.00  0.00    -0.236 NA
ATOM      8  C   UNL     1     -39.184 149.439   3.944  1.00  0.00    +0.206 A 
ATOM      9  N   UNL     1     -38.078 148.677   4.267  1.00  0.00    -0.283 N 
ENDROOT
BRANCH   1  10
ATOM     10  O   UNL     1     -37.544 146.762  -0.868  1.00  0.00    -0.493 OA
BRANCH  10  11
ATOM     11  C   UNL     1     -37.639 147.789  -1.857  1.00  0.00    +0.241 C 
BRANCH  11  12
ATOM     12  C   UNL     1     -36.224 148.255  -2.204  1.00  0.00    +0.048 C 
ATOM     13  C   UNL     1     -35.722 149.375  -1.275  1.00  0.00    +0.172 C 
ATOM     14  C   UNL     1     -36.182 149.351  -3.283  1.00  0.00    +0.172 C 
ATOM     15  O   UNL     1     -36.023 150.382  -2.271  1.00  0.00    -0.380 OA
ATOM     16  C   UNL     1     -35.237 147.111  -2.393  1.00  0.00    +0.020 C 
ENDBRANCH  11  12
ENDBRANCH  10  11
ENDBRANCH   1  10
BRANCH   9  17
ATOM     17  C   UNL     1     -37.547 148.616   5.588  1.00  0.00    +0.139 A 
ATOM     18  C   UNL     1     -37.780 147.539   6.424  1.00  0.00    +0.048 A 
ATOM     19  N   UNL     1     -36.827 149.693   5.995  1.00  0.00    -0.228 NA
ATOM     20  C   UNL     1     -37.227 147.564   7.701  1.00  0.00    +0.014 A 
ATOM     21  C   UNL     1     -36.274 149.736   7.233  1.00  0.00    +0.096 A 
ATOM     22  C   UNL     1     -36.465 148.660   8.125  1.00  0.00    +0.002 A 
ATOM     23  C   UNL     1     -35.513 150.857   7.670  1.00  0.00    +0.063 A 
ATOM     24  C   UNL     1     -35.919 148.686   9.415  1.00  0.00    +0.010 A 
ATOM     25  C   UNL     1     -34.984 150.856   8.976  1.00  0.00    +0.028 A 
ATOM     26  C   UNL     1     -35.180 149.783   9.839  1.00  0.00    +0.003 A 
BRANCH  23  27
ATOM     27  N   UNL     1     -35.304 151.960   6.799  1.00  0.00    -0.370 N 
ATOM     28  C   UNL     1     -33.940 152.007   6.246  1.00  0.00    +0.118 C 
ATOM     29  C   UNL     1     -35.846 153.268   7.186  1.00  0.00    +0.118 C 
ATOM     30  C   UNL     1     -33.921 152.911   5.013  1.00  0.00    +0.040 C 
ATOM     31  C   UNL     1     -35.876 154.184   5.964  1.00  0.00    +0.040 C 
ATOM     32  C   UNL     1     -34.507 154.301   5.285  1.00  0.00    +0.054 C 
BRANCH  32  33
ATOM     33  N   UNL     1     -33.595 155.141   6.075  1.00  0.00    -0.328 NA
ATOM     34  H   UNL     1     -33.915 156.109   6.040  1.00  0.00    +0.119 HD
ATOM     35  H   UNL     1     -32.663 155.138   5.667  1.00  0.00    +0.119 HD
ENDBRANCH  32  33
ENDBRANCH  23  27
ENDBRANCH   9  17
TORSDOF 6
ENDMDL
MODEL 9
REMARK VINA RESULT:    -8.214     10.675     16.718
REMARK INTER + INTRA:         -11.241
REMARK INTER:                 -10.534
REMARK INTRA:                  -0.706
REMARK UNBOUND:                -0.385
REMARK SMILES CC1(COc2ccc3c(c2)ncn3-c2ccc3cccc(N4CCC(N)CC4)c3n2)COC1
REMARK SMILES IDX 5 1 6 2 7 3 8 4 9 5 10 6 11 7 12 8 13 9 4 10 3 11 2 12 31 13
REMARK SMILES IDX 33 14 32 15 1 16 14 17 15 18 30 19 16 20 29 21 17 22 21 23
REMARK SMILES IDX 18 24 20 25 19 26 22 27 23 28 28 29 24 30 27 31 25 32 26 33
REMARK H PARENT 26 34 26 35
ROOT
ATOM      1  C   UNL     1     -37.356 156.877   4.100  1.00  0.00    +0.121 A 
ATOM      2  C   UNL     1     -38.111 155.782   4.513  1.00  0.00    +0.049 A 
ATOM      3  C   UNL     1     -37.508 154.648   5.084  1.00  0.00    +0.033 A 
ATOM      4  C   UNL     1     -36.113 154.648   5.251  1.00  0.00    +0.075 A 
ATOM      5  C   UNL     1     -35.341 155.722   4.796  1.00  0.00    +0.093 A 
ATOM      6  C   UNL     1     -35.964 156.846   4.231  1.00  0.00    +0.077 A 
ATOM      7  N   UNL     1     -34.004 155.489   4.957  1.00  0.00    -0.236 NA
ATOM      8  C   UNL     1     -33.938 154.296   5.498  1.00  0.00    +0.206 A 
ATOM      9  N   UNL     1     -35.179 153.750   5.762  1.00  0.00    -0.283 N 
ENDROOT
BRANCH   1  10
ATOM     10  O   UNL     1     -37.845 158.023   3.534  1.00  0.00    -0.493 OA
BRANCH  10  11
ATOM     11  C   UNL     1     -37.881 158.089   2.107  1.00  0.00    +0.241 C 
BRANCH  11  12
ATOM     12  C   UNL     1     -39.191 158.759   1.690  1.00  0.00    +0.048 C 
ATOM     13  C   UNL     1     -39.427 158.709   0.169  1.00  0.00    +0.172 C 
ATOM     14  C   UNL     1     -39.063 160.275   1.458  1.00  0.00    +0.172 C 
ATOM     15  O   UNL     1     -38.977 160.078   0.022  1.00  0.00    -0.380 OA
ATOM     16  C   UNL     1     -40.389 158.322   2.521  1.00  0.00    +0.020 C 
ENDBRANCH  11  12
ENDBRANCH  10  11
ENDBRANCH   1  10
BRANCH   9  17
ATOM     17  C   UNL     1     -35.343 152.502   6.431  1.00  0.00    +0.139 A 
ATOM     18  C   UNL     1     -34.622 152.178   7.564  1.00  0.00    +0.048 A 
ATOM     19  N   UNL     1     -36.223 151.633   5.871  1.00  0.00    -0.228 NA
ATOM     20  C   UNL     1     -34.841 150.935   8.152  1.00  0.00    +0.014 A 
ATOM     21  C   UNL     1     -36.456 150.419   6.429  1.00  0.00    +0.096 A 
ATOM     22  C   UNL     1     -35.761 150.038   7.596  1.00  0.00    +0.002 A 
ATOM     23  C   UNL     1     -37.380 149.500   5.854  1.00  0.00    +0.063 A 
ATOM     24  C   UNL     1     -35.972 148.783   8.184  1.00  0.00    +0.010 A 
ATOM     25  C   UNL     1     -37.563 148.243   6.465  1.00  0.00    +0.028 A 
ATOM     26  C   UNL     1     -36.870 147.888   7.618  1.00  0.00    +0.003 A 
BRANCH  23  27
ATOM     27  N   UNL     1     -38.095 149.850   4.677  1.00  0.00    -0.370 N 
ATOM     28  C   UNL     1     -38.777 151.150   4.782  1.00  0.00    +0.118 C 
ATOM     29  C   UNL     1     -38.876 148.808   4.000  1.00  0.00    +0.118 C 
ATOM     30  C   UNL     1     -39.127 151.656   3.382  1.00  0.00    +0.040 C 
ATOM     31  C   UNL     1     -39.210 149.269   2.582  1.00  0.00    +0.040 C 
ATOM     32  C   UNL     1     -39.913 150.630   2.558  1.00  0.00    +0.054 C 
BRANCH  32  33
ATOM     33  N   UNL     1     -41.308 150.513   3.005  1.00  0.00    -0.328 NA
ATOM     34  H   UNL     1     -41.407 150.961   3.916  1.00  0.00    +0.119 HD
ATOM     35  H   UNL     1     -41.559 149.536   3.145  1.00  0.00    +0.119 HD
ENDBRANCH  32  33
ENDBRANCH  23  27
ENDBRANCH   9  17
TORSDOF 6
ENDMDL
MODEL 10
REMARK VINA RESULT:    -8.144     16.030     17.634
REMARK INTER + INTRA:         -11.148
REMARK INTER:                 -10.157
REMARK INTRA:                  -0.991
REMARK UNBOUND:                -0.385
REMARK SMILES CC1(COc2ccc3c(c2)ncn3-c2ccc3cccc(N4CCC(N)CC4)c3n2)COC1
REMARK SMILES IDX 5 1 6 2 7 3 8 4 9 5 10 6 11 7 12 8 13 9 4 10 3 11 2 12 31 13
REMARK SMILES IDX 33 14 32 15 1 16 14 17 15 18 30 19 16 20 29 21 17 22 21 23
REMARK SMILES IDX 18 24 20 25 19 26 22 27 23 28 28 29 24 30 27 31 25 32 26 33
REMARK H PARENT 26 34 26 35
ROOT
ATOM      1  C   UNL     1     -36.236 150.718   6.270  1.00  0.00    +0.121 A 
ATOM      2  C   UNL     1     -35.005 150.440   5.679  1.00  0.00    +0.049 A 
ATOM      3  C   UNL     1     -34.904 149.610   4.550  1.00  0.00    +0.033 A 
ATOM      4  C   UNL     1     -36.084 149.073   4.010  1.00  0.00    +0.075 A 
ATOM      5  C   UNL     1     -37.320 149.306   4.625  1.00  0.00    +0.093 A 
ATOM      6  C   UNL     1     -37.398 150.142   5.749  1.00  0.00    +0.077 A 
ATOM      7  N   UNL     1     -38.328 148.619   4.010  1.00  0.00    -0.236 NA
ATOM      8  C   UNL     1     -37.741 147.967   3.035  1.00  0.00    +0.206 A 
ATOM      9  N   UNL     1     -36.391 148.241   2.936  1.00  0.00    -0.283 N 
ENDROOT
BRANCH   1  10
ATOM     10  O   UNL     1     -36.440 151.509   7.367  1.00  0.00    -0.493 OA
BRANCH  10  11
ATOM     11  C   UNL     1     -35.602 152.657   7.516  1.00  0.00    +0.241 C 
BRANCH  11  12
ATOM     12  C   UNL     1     -36.305 153.853   6.872  1.00  0.00    +0.048 C 
ATOM     13  C   UNL     1     -35.706 154.229   5.504  1.00  0.00    +0.172 C 
ATOM     14  C   UNL     1     -35.738 155.214   7.314  1.00  0.00    +0.172 C 
ATOM     15  O   UNL     1     -34.953 155.316   6.096  1.00  0.00    -0.380 OA
ATOM     16  C   UNL     1     -37.822 153.741   6.878  1.00  0.00    +0.020 C 
ENDBRANCH  11  12
ENDBRANCH  10  11
ENDBRANCH   1  10
BRANCH   9  17
ATOM     17  C   UNL     1     -35.574 147.714   1.892  1.00  0.00    +0.139 A 
ATOM     18  C   UNL     1     -34.194 147.761   1.947  1.00  0.00    +0.048 A 
ATOM     19  N   UNL     1     -36.230 147.195   0.823  1.00  0.00    -0.228 NA
ATOM     20  C   UNL     1     -33.474 147.228   0.881  1.00  0.00    +0.014 A 
ATOM     21  C   UNL     1     -35.549 146.665  -0.224  1.00  0.00    +0.096 A 
ATOM     22  C   UNL     1     -34.138 146.670  -0.218  1.00  0.00    +0.002 A 
ATOM     23  C   UNL     1     -36.224 146.113  -1.349  1.00  0.00    +0.063 A 
ATOM     24  C   UNL     1     -33.410 146.143  -1.293  1.00  0.00    +0.010 A 
ATOM     25  C   UNL     1     -35.463 145.598  -2.417  1.00  0.00    +0.028 A 
ATOM     26  C   UNL     1     -34.072 145.609  -2.390  1.00  0.00    +0.003 A 
BRANCH  23  27
ATOM     27  N   UNL     1     -37.644 146.094  -1.390  1.00  0.00    -0.370 N 
ATOM     28  C   UNL     1     -38.203 144.732  -1.384  1.00  0.00    +0.118 C 
ATOM     29  C   UNL     1     -38.329 147.026  -2.293  1.00  0.00    +0.118 C 
ATOM     30  C   UNL     1     -39.677 144.787  -0.979  1.00  0.00    +0.040 C 
ATOM     31  C   UNL     1     -39.799 147.132  -1.890  1.00  0.00    +0.040 C 
ATOM     32  C   UNL     1     -40.492 145.767  -1.830  1.00  0.00    +0.054 C 
BRANCH  32  33
ATOM     33  N   UNL     1     -40.748 145.245  -3.180  1.00  0.00    -0.328 NA
ATOM     34  H   UNL     1     -40.709 144.226  -3.160  1.00  0.00    +0.119 HD
ATOM     35  H   UNL     1     -40.017 145.541  -3.824  1.00  0.00    +0.119 HD
ENDBRANCH  32  33
ENDBRANCH  23  27
ENDBRANCH   9  17
TORSDOF 6
ENDMDL
