MODEL 1
REMARK VINA RESULT:   -10.990      0.000      0.000
REMARK INTER + INTRA:         -14.129
REMARK INTER:                 -14.203
REMARK INTRA:                   0.074
REMARK UNBOUND:                 0.074
REMARK SMILES CNC(=O)c1ccccc1Sc1ccc2c(/C=C/c3ccccn3)n[nH]c2c1
REMARK SMILES IDX 11 1 10 2 5 3 6 4 7 5 9 6 8 7 3 8 2 9 4 10 1 11 12 13 13 14
REMARK SMILES IDX 28 15 14 16 27 17 15 18 26 19 16 20 25 21 17 23 18 24 19 25
REMARK SMILES IDX 20 26 24 27 21 28 23 29 22 30
REMARK H PARENT 2 12 26 22
ROOT
ATOM      1  S   UNL     1     -39.024 158.651  -1.252  1.00  0.00    -0.089 SA
ENDROOT
BRANCH   1   2
ATOM      2  C   UNL     1     -40.225 159.051   0.017  1.00  0.00    +0.025 A 
ATOM      3  C   UNL     1     -40.048 158.783   1.386  1.00  0.00    +0.053 A 
ATOM      4  C   UNL     1     -41.019 159.199   2.314  1.00  0.00    +0.015 A 
ATOM      5  C   UNL     1     -42.177 159.847   1.885  1.00  0.00    +0.001 A 
ATOM      6  C   UNL     1     -41.402 159.698  -0.398  1.00  0.00    +0.016 A 
ATOM      7  C   UNL     1     -42.370 160.090   0.530  1.00  0.00    +0.001 A 
BRANCH   3   8
ATOM      8  C   UNL     1     -38.859 158.100   1.953  1.00  0.00    +0.252 C 
ATOM      9  N   UNL     1     -39.015 157.531   3.198  1.00  0.00    -0.355 N 
ATOM     10  O   UNL     1     -37.806 158.090   1.326  1.00  0.00    -0.269 OA
ATOM     11  C   UNL     1     -37.965 156.753   3.801  1.00  0.00    +0.143 C 
ATOM     12  H   UNL     1     -39.952 157.448   3.574  1.00  0.00    +0.163 HD
ENDBRANCH   3   8
ENDBRANCH   1   2
BRANCH   1  13
ATOM     13  C   UNL     1     -38.953 160.212  -2.124  1.00  0.00    +0.014 A 
ATOM     14  C   UNL     1     -38.879 160.210  -3.520  1.00  0.00    +0.016 A 
ATOM     15  C   UNL     1     -38.953 161.421  -1.412  1.00  0.00    +0.043 A 
ATOM     16  C   UNL     1     -38.821 161.412  -4.243  1.00  0.00    +0.014 A 
ATOM     17  C   UNL     1     -38.902 162.606  -2.156  1.00  0.00    +0.067 A 
ATOM     18  C   UNL     1     -38.837 162.635  -3.544  1.00  0.00    +0.027 A 
ATOM     19  N   UNL     1     -38.904 163.916  -1.769  1.00  0.00    -0.277 N 
ATOM     20  C   UNL     1     -38.798 164.022  -3.881  1.00  0.00    +0.093 A 
ATOM     21  N   UNL     1     -38.839 164.793  -2.783  1.00  0.00    -0.175 NA
ATOM     22  H   UNL     1     -38.951 164.278  -0.824  1.00  0.00    +0.190 HD
BRANCH  20  23
ATOM     23  C   UNL     1     -38.724 164.534  -5.218  1.00  0.00    +0.033 C 
ATOM     24  C   UNL     1     -38.124 163.910  -6.247  1.00  0.00    +0.030 C 
BRANCH  24  25
ATOM     25  C   UNL     1     -38.056 164.447  -7.610  1.00  0.00    +0.063 A 
ATOM     26  C   UNL     1     -37.921 163.581  -8.693  1.00  0.00    +0.028 A 
ATOM     27  N   UNL     1     -38.130 165.792  -7.760  1.00  0.00    -0.257 NA
ATOM     28  C   UNL     1     -37.860 164.115  -9.978  1.00  0.00    +0.004 A 
ATOM     29  C   UNL     1     -38.066 166.281  -9.018  1.00  0.00    +0.111 A 
ATOM     30  C   UNL     1     -37.933 165.492 -10.148  1.00  0.00    +0.020 A 
ENDBRANCH  24  25
ENDBRANCH  20  23
ENDBRANCH   1  13
TORSDOF 5
ENDMDL
MODEL 2
REMARK VINA RESULT:   -10.451      3.282     10.058
REMARK INTER + INTRA:         -13.433
REMARK INTER:                 -13.334
REMARK INTRA:                  -0.099
REMARK UNBOUND:                 0.074
REMARK SMILES CNC(=O)c1ccccc1Sc1ccc2c(/C=C/c3ccccn3)n[nH]c2c1
REMARK SMILES IDX 11 1 10 2 5 3 6 4 7 5 9 6 8 7 3 8 2 9 4 10 1 11 12 13 13 14
REMARK SMILES IDX 28 15 14 16 27 17 15 18 26 19 16 20 25 21 17 23 18 24 19 25
REMARK SMILES IDX 20 26 24 27 21 28 23 29 22 30
REMARK H PARENT 2 12 26 22
ROOT
ATOM      1  S   UNL     1     -39.360 160.684  -4.622  1.00  0.00    -0.089 SA
ENDROOT
BRANCH   1   2
ATOM      2  C   UNL     1     -38.792 162.378  -4.476  1.00  0.00    +0.025 A 
ATOM      3  C   UNL     1     -38.130 163.081  -5.498  1.00  0.00    +0.053 A 
ATOM      4  C   UNL     1     -37.785 164.431  -5.313  1.00  0.00    +0.015 A 
ATOM      5  C   UNL     1     -38.064 165.074  -4.107  1.00  0.00    +0.001 A 
ATOM      6  C   UNL     1     -39.057 163.039  -3.264  1.00  0.00    +0.016 A 
ATOM      7  C   UNL     1     -38.694 164.375  -3.082  1.00  0.00    +0.001 A 
BRANCH   3   8
ATOM      8  C   UNL     1     -37.782 162.498  -6.819  1.00  0.00    +0.252 C 
ATOM      9  N   UNL     1     -36.663 161.697  -6.858  1.00  0.00    -0.355 N 
ATOM     10  O   UNL     1     -38.466 162.763  -7.800  1.00  0.00    -0.269 OA
ATOM     11  C   UNL     1     -36.289 160.993  -8.057  1.00  0.00    +0.143 C 
ATOM     12  H   UNL     1     -36.250 161.404  -5.980  1.00  0.00    +0.163 HD
ENDBRANCH   3   8
ENDBRANCH   1   2
BRANCH   1  13
ATOM     13  C   UNL     1     -39.140 160.131  -2.934  1.00  0.00    +0.014 A 
ATOM     14  C   UNL     1     -38.237 159.097  -2.667  1.00  0.00    +0.016 A 
ATOM     15  C   UNL     1     -39.880 160.716  -1.895  1.00  0.00    +0.043 A 
ATOM     16  C   UNL     1     -38.034 158.633  -1.359  1.00  0.00    +0.014 A 
ATOM     17  C   UNL     1     -39.655 160.240  -0.598  1.00  0.00    +0.067 A 
ATOM     18  C   UNL     1     -38.757 159.221  -0.302  1.00  0.00    +0.027 A 
ATOM     19  N   UNL     1     -40.193 160.606   0.604  1.00  0.00    -0.277 N 
ATOM     20  C   UNL     1     -38.844 159.054   1.114  1.00  0.00    +0.093 A 
ATOM     21  N   UNL     1     -39.729 159.909   1.653  1.00  0.00    -0.175 NA
ATOM     22  H   UNL     1     -40.882 161.328   0.775  1.00  0.00    +0.190 HD
BRANCH  20  23
ATOM     23  C   UNL     1     -38.089 158.099   1.870  1.00  0.00    +0.033 C 
ATOM     24  C   UNL     1     -37.979 158.096   3.210  1.00  0.00    +0.030 C 
BRANCH  24  25
ATOM     25  C   UNL     1     -37.201 157.111   3.971  1.00  0.00    +0.063 A 
ATOM     26  C   UNL     1     -37.852 156.081   4.644  1.00  0.00    +0.028 A 
ATOM     27  N   UNL     1     -35.853 157.251   3.985  1.00  0.00    -0.257 NA
ATOM     28  C   UNL     1     -37.092 155.158   5.359  1.00  0.00    +0.004 A 
ATOM     29  C   UNL     1     -35.143 156.341   4.687  1.00  0.00    +0.111 A 
ATOM     30  C   UNL     1     -35.710 155.288   5.384  1.00  0.00    +0.020 A 
ENDBRANCH  24  25
ENDBRANCH  20  23
ENDBRANCH   1  13
TORSDOF 5
ENDMDL
MODEL 3
REMARK VINA RESULT:   -10.146      4.348     11.147
REMARK INTER + INTRA:         -13.038
REMARK INTER:                 -12.262
REMARK INTRA:                  -0.776
REMARK UNBOUND:                 0.074
REMARK SMILES CNC(=O)c1ccccc1Sc1ccc2c(/C=C/c3ccccn3)n[nH]c2c1
REMARK SMILES IDX 11 1 10 2 5 3 6 4 7 5 9 6 8 7 3 8 2 9 4 10 1 11 12 13 13 14
REMARK SMILES IDX 28 15 14 16 27 17 15 18 26 19 16 20 25 21 17 23 18 24 19 25
REMARK SMILES IDX 20 26 24 27 21 28 23 29 22 30
REMARK H PARENT 2 12 26 22
ROOT
ATOM      1  S   UNL     1     -38.194 164.132 -11.109  1.00  0.00    -0.089 SA
ENDROOT
BRANCH   1   2
ATOM      2  C   UNL     1     -36.540 164.780 -11.349  1.00  0.00    +0.025 A 
ATOM      3  C   UNL     1     -36.237 166.149 -11.464  1.00  0.00    +0.053 A 
ATOM      4  C   UNL     1     -34.898 166.563 -11.580  1.00  0.00    +0.015 A 
ATOM      5  C   UNL     1     -33.867 165.626 -11.617  1.00  0.00    +0.001 A 
ATOM      6  C   UNL     1     -35.489 163.849 -11.397  1.00  0.00    +0.016 A 
ATOM      7  C   UNL     1     -34.164 164.269 -11.532  1.00  0.00    +0.001 A 
BRANCH   3   8
ATOM      8  C   UNL     1     -37.252 167.231 -11.439  1.00  0.00    +0.252 C 
ATOM      9  N   UNL     1     -36.944 168.341 -10.684  1.00  0.00    -0.355 N 
ATOM     10  O   UNL     1     -38.306 167.092 -12.048  1.00  0.00    -0.269 OA
ATOM     11  C   UNL     1     -37.802 169.496 -10.669  1.00  0.00    +0.143 C 
ATOM     12  H   UNL     1     -35.995 168.444 -10.343  1.00  0.00    +0.163 HD
ENDBRANCH   3   8
ENDBRANCH   1   2
BRANCH   1  13
ATOM     13  C   UNL     1     -38.168 163.846  -9.343  1.00  0.00    +0.014 A 
ATOM     14  C   UNL     1     -38.193 162.532  -8.865  1.00  0.00    +0.016 A 
ATOM     15  C   UNL     1     -38.142 164.928  -8.450  1.00  0.00    +0.043 A 
ATOM     16  C   UNL     1     -38.174 162.263  -7.487  1.00  0.00    +0.014 A 
ATOM     17  C   UNL     1     -38.116 164.633  -7.082  1.00  0.00    +0.067 A 
ATOM     18  C   UNL     1     -38.131 163.338  -6.578  1.00  0.00    +0.027 A 
ATOM     19  N   UNL     1     -38.073 165.445  -5.984  1.00  0.00    -0.277 N 
ATOM     20  C   UNL     1     -38.099 163.494  -5.159  1.00  0.00    +0.093 A 
ATOM     21  N   UNL     1     -38.065 164.791  -4.812  1.00  0.00    -0.175 NA
ATOM     22  H   UNL     1     -38.043 166.458  -5.969  1.00  0.00    +0.190 HD
BRANCH  20  23
ATOM     23  C   UNL     1     -38.103 162.412  -4.219  1.00  0.00    +0.033 C 
ATOM     24  C   UNL     1     -39.166 162.039  -3.485  1.00  0.00    +0.030 C 
BRANCH  24  25
ATOM     25  C   UNL     1     -39.156 160.928  -2.526  1.00  0.00    +0.063 A 
ATOM     26  C   UNL     1     -38.505 159.740  -2.845  1.00  0.00    +0.028 A 
ATOM     27  N   UNL     1     -39.795 161.113  -1.344  1.00  0.00    -0.257 NA
ATOM     28  C   UNL     1     -38.508 158.700  -1.918  1.00  0.00    +0.004 A 
ATOM     29  C   UNL     1     -39.782 160.086  -0.466  1.00  0.00    +0.111 A 
ATOM     30  C   UNL     1     -39.159 158.873  -0.703  1.00  0.00    +0.020 A 
ENDBRANCH  24  25
ENDBRANCH  20  23
ENDBRANCH   1  13
TORSDOF 5
ENDMDL
MODEL 4
REMARK VINA RESULT:    -9.778      4.014     10.561
REMARK INTER + INTRA:         -12.562
REMARK INTER:                 -12.248
REMARK INTRA:                  -0.315
REMARK UNBOUND:                 0.074
REMARK SMILES CNC(=O)c1ccccc1Sc1ccc2c(/C=C/c3ccccn3)n[nH]c2c1
REMARK SMILES IDX 11 1 10 2 5 3 6 4 7 5 9 6 8 7 3 8 2 9 4 10 1 11 12 13 13 14
REMARK SMILES IDX 28 15 14 16 27 17 15 18 26 19 16 20 25 21 17 23 18 24 19 25
REMARK SMILES IDX 20 26 24 27 21 28 23 29 22 30
REMARK H PARENT 2 12 26 22
ROOT
ATOM      1  S   UNL     1     -37.783 165.216 -10.016  1.00  0.00    -0.089 SA
ENDROOT
BRANCH   1   2
ATOM      2  C   UNL     1     -37.412 163.694 -10.887  1.00  0.00    +0.025 A 
ATOM      3  C   UNL     1     -36.151 163.376 -11.423  1.00  0.00    +0.053 A 
ATOM      4  C   UNL     1     -35.940 162.125 -12.028  1.00  0.00    +0.015 A 
ATOM      5  C   UNL     1     -36.982 161.205 -12.135  1.00  0.00    +0.001 A 
ATOM      6  C   UNL     1     -38.453 162.757 -11.011  1.00  0.00    +0.016 A 
ATOM      7  C   UNL     1     -38.239 161.525 -11.632  1.00  0.00    +0.001 A 
BRANCH   3   8
ATOM      8  C   UNL     1     -34.973 164.278 -11.368  1.00  0.00    +0.252 C 
ATOM      9  N   UNL     1     -35.050 165.431 -12.117  1.00  0.00    -0.355 N 
ATOM     10  O   UNL     1     -33.995 163.961 -10.701  1.00  0.00    -0.269 OA
ATOM     11  C   UNL     1     -34.015 166.430 -12.059  1.00  0.00    +0.143 C 
ATOM     12  H   UNL     1     -35.947 165.691 -12.509  1.00  0.00    +0.163 HD
ENDBRANCH   3   8
ENDBRANCH   1   2
BRANCH   1  13
ATOM     13  C   UNL     1     -37.990 164.586  -8.354  1.00  0.00    +0.014 A 
ATOM     14  C   UNL     1     -37.985 163.204  -8.143  1.00  0.00    +0.016 A 
ATOM     15  C   UNL     1     -38.172 165.470  -7.279  1.00  0.00    +0.043 A 
ATOM     16  C   UNL     1     -38.144 162.668  -6.856  1.00  0.00    +0.014 A 
ATOM     17  C   UNL     1     -38.321 164.911  -6.005  1.00  0.00    +0.067 A 
ATOM     18  C   UNL     1     -38.312 163.542  -5.764  1.00  0.00    +0.027 A 
ATOM     19  N   UNL     1     -38.496 165.490  -4.780  1.00  0.00    -0.277 N 
ATOM     20  C   UNL     1     -38.495 163.416  -4.353  1.00  0.00    +0.093 A 
ATOM     21  N   UNL     1     -38.608 164.618  -3.766  1.00  0.00    -0.175 NA
ATOM     22  H   UNL     1     -38.544 166.480  -4.569  1.00  0.00    +0.190 HD
BRANCH  20  23
ATOM     23  C   UNL     1     -38.554 162.169  -3.647  1.00  0.00    +0.033 C 
ATOM     24  C   UNL     1     -39.069 162.009  -2.416  1.00  0.00    +0.030 C 
BRANCH  24  25
ATOM     25  C   UNL     1     -39.122 160.727  -1.705  1.00  0.00    +0.063 A 
ATOM     26  C   UNL     1     -38.604 159.580  -2.301  1.00  0.00    +0.028 A 
ATOM     27  N   UNL     1     -39.686 160.714  -0.473  1.00  0.00    -0.257 NA
ATOM     28  C   UNL     1     -38.665 158.374  -1.606  1.00  0.00    +0.004 A 
ATOM     29  C   UNL     1     -39.732 159.530   0.176  1.00  0.00    +0.111 A 
ATOM     30  C   UNL     1     -39.241 158.345  -0.343  1.00  0.00    +0.020 A 
ENDBRANCH  24  25
ENDBRANCH  20  23
ENDBRANCH   1  13
TORSDOF 5
ENDMDL
MODEL 5
REMARK VINA RESULT:    -9.414      4.211      9.843
REMARK INTER + INTRA:         -12.092
REMARK INTER:                 -11.122
REMARK INTRA:                  -0.970
REMARK UNBOUND:                 0.074
REMARK SMILES CNC(=O)c1ccccc1Sc1ccc2c(/C=C/c3ccccn3)n[nH]c2c1
REMARK SMILES IDX 11 1 10 2 5 3 6 4 7 5 9 6 8 7 3 8 2 9 4 10 1 11 12 13 13 14
REMARK SMILES IDX 28 15 14 16 27 17 15 18 26 19 16 20 25 21 17 23 18 24 19 25
REMARK SMILES IDX 20 26 24 27 21 28 23 29 22 30
REMARK H PARENT 2 12 26 22
ROOT
ATOM      1  S   UNL     1     -36.392 162.794  -9.663  1.00  0.00    -0.089 SA
ENDROOT
BRANCH   1   2
ATOM      2  C   UNL     1     -37.800 162.337 -10.674  1.00  0.00    +0.025 A 
ATOM      3  C   UNL     1     -37.930 161.103 -11.337  1.00  0.00    +0.053 A 
ATOM      4  C   UNL     1     -39.106 160.810 -12.050  1.00  0.00    +0.015 A 
ATOM      5  C   UNL     1     -40.134 161.748 -12.137  1.00  0.00    +0.001 A 
ATOM      6  C   UNL     1     -38.843 163.273 -10.779  1.00  0.00    +0.016 A 
ATOM      7  C   UNL     1     -39.999 162.981 -11.507  1.00  0.00    +0.001 A 
BRANCH   3   8
ATOM      8  C   UNL     1     -36.901 160.034 -11.315  1.00  0.00    +0.252 C 
ATOM      9  N   UNL     1     -37.068 159.044 -10.372  1.00  0.00    -0.355 N 
ATOM     10  O   UNL     1     -35.955 160.083 -12.092  1.00  0.00    -0.269 OA
ATOM     11  C   UNL     1     -36.193 157.902 -10.325  1.00  0.00    +0.143 C 
ATOM     12  H   UNL     1     -37.951 158.993  -9.879  1.00  0.00    +0.163 HD
ENDBRANCH   3   8
ENDBRANCH   1   2
BRANCH   1  13
ATOM     13  C   UNL     1     -37.141 162.745  -8.039  1.00  0.00    +0.014 A 
ATOM     14  C   UNL     1     -37.304 161.512  -7.400  1.00  0.00    +0.016 A 
ATOM     15  C   UNL     1     -37.574 163.929  -7.422  1.00  0.00    +0.043 A 
ATOM     16  C   UNL     1     -37.887 161.429  -6.126  1.00  0.00    +0.014 A 
ATOM     17  C   UNL     1     -38.145 163.820  -6.149  1.00  0.00    +0.067 A 
ATOM     18  C   UNL     1     -38.312 162.610  -5.487  1.00  0.00    +0.027 A 
ATOM     19  N   UNL     1     -38.639 164.767  -5.297  1.00  0.00    -0.277 N 
ATOM     20  C   UNL     1     -38.925 162.952  -4.243  1.00  0.00    +0.093 A 
ATOM     21  N   UNL     1     -39.119 164.277  -4.143  1.00  0.00    -0.175 NA
ATOM     22  H   UNL     1     -38.675 165.769  -5.445  1.00  0.00    +0.190 HD
BRANCH  20  23
ATOM     23  C   UNL     1     -39.289 162.009  -3.227  1.00  0.00    +0.033 C 
ATOM     24  C   UNL     1     -39.218 162.241  -1.904  1.00  0.00    +0.030 C 
BRANCH  24  25
ATOM     25  C   UNL     1     -39.594 161.266  -0.875  1.00  0.00    +0.063 A 
ATOM     26  C   UNL     1     -38.628 160.764  -0.007  1.00  0.00    +0.028 A 
ATOM     27  N   UNL     1     -40.895 160.888  -0.813  1.00  0.00    -0.257 NA
ATOM     28  C   UNL     1     -39.010 159.839   0.962  1.00  0.00    +0.004 A 
ATOM     29  C   UNL     1     -41.235 159.989   0.136  1.00  0.00    +0.111 A 
ATOM     30  C   UNL     1     -40.339 159.441   1.038  1.00  0.00    +0.020 A 
ENDBRANCH  24  25
ENDBRANCH  20  23
ENDBRANCH   1  13
TORSDOF 5
ENDMDL
MODEL 6
REMARK VINA RESULT:    -9.085      3.124      6.201
REMARK INTER + INTRA:         -11.667
REMARK INTER:                 -11.224
REMARK INTRA:                  -0.443
REMARK UNBOUND:                 0.074
REMARK SMILES CNC(=O)c1ccccc1Sc1ccc2c(/C=C/c3ccccn3)n[nH]c2c1
REMARK SMILES IDX 11 1 10 2 5 3 6 4 7 5 9 6 8 7 3 8 2 9 4 10 1 11 12 13 13 14
REMARK SMILES IDX 28 15 14 16 27 17 15 18 26 19 16 20 25 21 17 23 18 24 19 25
REMARK SMILES IDX 20 26 24 27 21 28 23 29 22 30
REMARK H PARENT 2 12 26 22
ROOT
ATOM      1  S   UNL     1     -37.646 156.132   3.677  1.00  0.00    -0.089 SA
ENDROOT
BRANCH   1   2
ATOM      2  C   UNL     1     -37.182 157.134   5.089  1.00  0.00    +0.025 A 
ATOM      3  C   UNL     1     -36.949 156.624   6.378  1.00  0.00    +0.053 A 
ATOM      4  C   UNL     1     -36.520 157.482   7.406  1.00  0.00    +0.015 A 
ATOM      5  C   UNL     1     -36.356 158.846   7.167  1.00  0.00    +0.001 A 
ATOM      6  C   UNL     1     -37.019 158.513   4.869  1.00  0.00    +0.016 A 
ATOM      7  C   UNL     1     -36.611 159.361   5.901  1.00  0.00    +0.001 A 
BRANCH   3   8
ATOM      8  C   UNL     1     -37.094 155.193   6.745  1.00  0.00    +0.252 C 
ATOM      9  N   UNL     1     -35.950 154.429   6.693  1.00  0.00    -0.355 N 
ATOM     10  O   UNL     1     -38.197 154.751   7.046  1.00  0.00    -0.269 OA
ATOM     11  C   UNL     1     -35.947 153.057   7.127  1.00  0.00    +0.143 C 
ATOM     12  H   UNL     1     -35.060 154.902   6.589  1.00  0.00    +0.163 HD
ENDBRANCH   3   8
ENDBRANCH   1   2
BRANCH   1  13
ATOM     13  C   UNL     1     -38.480 157.361   2.679  1.00  0.00    +0.014 A 
ATOM     14  C   UNL     1     -37.773 158.008   1.661  1.00  0.00    +0.016 A 
ATOM     15  C   UNL     1     -39.823 157.683   2.927  1.00  0.00    +0.043 A 
ATOM     16  C   UNL     1     -38.389 158.977   0.855  1.00  0.00    +0.014 A 
ATOM     17  C   UNL     1     -40.417 158.648   2.105  1.00  0.00    +0.067 A 
ATOM     18  C   UNL     1     -39.741 159.300   1.081  1.00  0.00    +0.027 A 
ATOM     19  N   UNL     1     -41.684 159.158   2.081  1.00  0.00    -0.277 N 
ATOM     20  C   UNL     1     -40.704 160.188   0.512  1.00  0.00    +0.093 A 
ATOM     21  N   UNL     1     -41.888 160.089   1.137  1.00  0.00    -0.175 NA
ATOM     22  H   UNL     1     -42.459 158.908   2.684  1.00  0.00    +0.190 HD
BRANCH  20  23
ATOM     23  C   UNL     1     -40.448 161.075  -0.585  1.00  0.00    +0.033 C 
ATOM     24  C   UNL     1     -39.349 161.038  -1.360  1.00  0.00    +0.030 C 
BRANCH  24  25
ATOM     25  C   UNL     1     -39.100 161.953  -2.480  1.00  0.00    +0.063 A 
ATOM     26  C   UNL     1     -38.981 161.451  -3.774  1.00  0.00    +0.028 A 
ATOM     27  N   UNL     1     -38.995 163.275  -2.200  1.00  0.00    -0.257 NA
ATOM     28  C   UNL     1     -38.745 162.340  -4.821  1.00  0.00    +0.004 A 
ATOM     29  C   UNL     1     -38.765 164.112  -3.236  1.00  0.00    +0.111 A 
ATOM     30  C   UNL     1     -38.634 163.697  -4.550  1.00  0.00    +0.020 A 
ENDBRANCH  24  25
ENDBRANCH  20  23
ENDBRANCH   1  13
TORSDOF 5
ENDMDL
MODEL 7
REMARK VINA RESULT:    -9.030      3.952     10.611
REMARK INTER + INTRA:         -11.597
REMARK INTER:                 -11.815
REMARK INTRA:                   0.218
REMARK UNBOUND:                 0.074
REMARK SMILES CNC(=O)c1ccccc1Sc1ccc2c(/C=C/c3ccccn3)n[nH]c2c1
REMARK SMILES IDX 11 1 10 2 5 3 6 4 7 5 9 6 8 7 3 8 2 9 4 10 1 11 12 13 13 14
REMARK SMILES IDX 28 15 14 16 27 17 15 18 26 19 16 20 25 21 17 23 18 24 19 25
REMARK SMILES IDX 20 26 24 27 21 28 23 29 22 30
REMARK H PARENT 2 12 26 22
ROOT
ATOM      1  S   UNL     1     -37.730 165.840  -7.275  1.00  0.00    -0.089 SA
ENDROOT
BRANCH   1   2
ATOM      2  C   UNL     1     -37.934 164.865  -8.765  1.00  0.00    +0.025 A 
ATOM      3  C   UNL     1     -37.733 165.357 -10.067  1.00  0.00    +0.053 A 
ATOM      4  C   UNL     1     -37.850 164.493 -11.170  1.00  0.00    +0.015 A 
ATOM      5  C   UNL     1     -38.198 163.155 -10.988  1.00  0.00    +0.001 A 
ATOM      6  C   UNL     1     -38.293 163.515  -8.601  1.00  0.00    +0.016 A 
ATOM      7  C   UNL     1     -38.426 162.669  -9.705  1.00  0.00    +0.001 A 
BRANCH   3   8
ATOM      8  C   UNL     1     -37.362 166.760 -10.378  1.00  0.00    +0.252 C 
ATOM      9  N   UNL     1     -36.058 166.976 -10.768  1.00  0.00    -0.355 N 
ATOM     10  O   UNL     1     -38.193 167.652 -10.254  1.00  0.00    -0.269 OA
ATOM     11  C   UNL     1     -35.612 168.276 -11.195  1.00  0.00    +0.143 C 
ATOM     12  H   UNL     1     -35.485 166.172 -10.995  1.00  0.00    +0.163 HD
ENDBRANCH   3   8
ENDBRANCH   1   2
BRANCH   1  13
ATOM     13  C   UNL     1     -38.134 164.614  -6.037  1.00  0.00    +0.014 A 
ATOM     14  C   UNL     1     -39.018 164.951  -5.007  1.00  0.00    +0.016 A 
ATOM     15  C   UNL     1     -37.556 163.337  -6.089  1.00  0.00    +0.043 A 
ATOM     16  C   UNL     1     -39.362 164.020  -4.015  1.00  0.00    +0.014 A 
ATOM     17  C   UNL     1     -37.920 162.424  -5.092  1.00  0.00    +0.067 A 
ATOM     18  C   UNL     1     -38.803 162.728  -4.063  1.00  0.00    +0.027 A 
ATOM     19  N   UNL     1     -37.553 161.126  -4.879  1.00  0.00    -0.277 N 
ATOM     20  C   UNL     1     -38.886 161.533  -3.285  1.00  0.00    +0.093 A 
ATOM     21  N   UNL     1     -38.113 160.562  -3.798  1.00  0.00    -0.175 NA
ATOM     22  H   UNL     1     -36.922 160.565  -5.440  1.00  0.00    +0.190 HD
BRANCH  20  23
ATOM     23  C   UNL     1     -39.688 161.382  -2.106  1.00  0.00    +0.033 C 
ATOM     24  C   UNL     1     -39.945 160.210  -1.499  1.00  0.00    +0.030 C 
BRANCH  24  25
ATOM     25  C   UNL     1     -40.769 160.070  -0.293  1.00  0.00    +0.063 A 
ATOM     26  C   UNL     1     -40.357 159.227   0.736  1.00  0.00    +0.028 A 
ATOM     27  N   UNL     1     -41.920 160.783  -0.232  1.00  0.00    -0.257 NA
ATOM     28  C   UNL     1     -41.156 159.111   1.872  1.00  0.00    +0.004 A 
ATOM     29  C   UNL     1     -42.674 160.650   0.881  1.00  0.00    +0.111 A 
ATOM     30  C   UNL     1     -42.338 159.835   1.949  1.00  0.00    +0.020 A 
ENDBRANCH  24  25
ENDBRANCH  20  23
ENDBRANCH   1  13
TORSDOF 5
ENDMDL
MODEL 8
REMARK VINA RESULT:    -8.962      3.698     10.322
REMARK INTER + INTRA:         -11.508
REMARK INTER:                 -11.331
REMARK INTRA:                  -0.177
REMARK UNBOUND:                 0.074
REMARK SMILES CNC(=O)c1ccccc1Sc1ccc2c(/C=C/c3ccccn3)n[nH]c2c1
REMARK SMILES IDX 11 1 10 2 5 3 6 4 7 5 9 6 8 7 3 8 2 9 4 10 1 11 12 13 13 14
REMARK SMILES IDX 28 15 14 16 27 17 15 18 26 19 16 20 25 21 17 23 18 24 19 25
REMARK SMILES IDX 20 26 24 27 21 28 23 29 22 30
REMARK H PARENT 2 12 26 22
ROOT
ATOM      1  S   UNL     1     -36.734 162.300  -8.724  1.00  0.00    -0.089 SA
ENDROOT
BRANCH   1   2
ATOM      2  C   UNL     1     -37.157 163.928  -9.343  1.00  0.00    +0.025 A 
ATOM      3  C   UNL     1     -36.462 164.590 -10.371  1.00  0.00    +0.053 A 
ATOM      4  C   UNL     1     -36.914 165.837 -10.834  1.00  0.00    +0.015 A 
ATOM      5  C   UNL     1     -38.030 166.445 -10.259  1.00  0.00    +0.001 A 
ATOM      6  C   UNL     1     -38.275 164.559  -8.769  1.00  0.00    +0.016 A 
ATOM      7  C   UNL     1     -38.705 165.808  -9.223  1.00  0.00    +0.001 A 
BRANCH   3   8
ATOM      8  C   UNL     1     -35.264 164.039 -11.052  1.00  0.00    +0.252 C 
ATOM      9  N   UNL     1     -34.075 164.696 -10.824  1.00  0.00    -0.355 N 
ATOM     10  O   UNL     1     -35.376 163.067 -11.790  1.00  0.00    -0.269 OA
ATOM     11  C   UNL     1     -32.831 164.192 -11.345  1.00  0.00    +0.143 C 
ATOM     12  H   UNL     1     -34.041 165.387 -10.084  1.00  0.00    +0.163 HD
ENDBRANCH   3   8
ENDBRANCH   1   2
BRANCH   1  13
ATOM     13  C   UNL     1     -37.420 162.400  -7.075  1.00  0.00    +0.014 A 
ATOM     14  C   UNL     1     -38.126 161.306  -6.563  1.00  0.00    +0.016 A 
ATOM     15  C   UNL     1     -37.268 163.568  -6.313  1.00  0.00    +0.043 A 
ATOM     16  C   UNL     1     -38.680 161.342  -5.274  1.00  0.00    +0.014 A 
ATOM     17  C   UNL     1     -37.824 163.576  -5.029  1.00  0.00    +0.067 A 
ATOM     18  C   UNL     1     -38.522 162.502  -4.491  1.00  0.00    +0.027 A 
ATOM     19  N   UNL     1     -37.833 164.535  -4.056  1.00  0.00    -0.277 N 
ATOM     20  C   UNL     1     -38.910 162.932  -3.185  1.00  0.00    +0.093 A 
ATOM     21  N   UNL     1     -38.482 164.180  -2.935  1.00  0.00    -0.175 NA
ATOM     22  H   UNL     1     -37.410 165.455  -4.094  1.00  0.00    +0.190 HD
BRANCH  20  23
ATOM     23  C   UNL     1     -39.661 162.141  -2.256  1.00  0.00    +0.033 C 
ATOM     24  C   UNL     1     -39.164 161.606  -1.127  1.00  0.00    +0.030 C 
BRANCH  24  25
ATOM     25  C   UNL     1     -39.945 160.797  -0.184  1.00  0.00    +0.063 A 
ATOM     26  C   UNL     1     -41.335 160.773  -0.275  1.00  0.00    +0.028 A 
ATOM     27  N   UNL     1     -39.266 160.094   0.754  1.00  0.00    -0.257 NA
ATOM     28  C   UNL     1     -42.055 159.997   0.631  1.00  0.00    +0.004 A 
ATOM     29  C   UNL     1     -39.991 159.351   1.619  1.00  0.00    +0.111 A 
ATOM     30  C   UNL     1     -41.373 159.271   1.599  1.00  0.00    +0.020 A 
ENDBRANCH  24  25
ENDBRANCH  20  23
ENDBRANCH   1  13
TORSDOF 5
ENDMDL
MODEL 9
REMARK VINA RESULT:    -8.835      6.665     10.993
REMARK INTER + INTRA:         -11.344
REMARK INTER:                 -11.215
REMARK INTRA:                  -0.129
REMARK UNBOUND:                 0.074
REMARK SMILES CNC(=O)c1ccccc1Sc1ccc2c(/C=C/c3ccccn3)n[nH]c2c1
REMARK SMILES IDX 11 1 10 2 5 3 6 4 7 5 9 6 8 7 3 8 2 9 4 10 1 11 12 13 13 14
REMARK SMILES IDX 28 15 14 16 27 17 15 18 26 19 16 20 25 21 17 23 18 24 19 25
REMARK SMILES IDX 20 26 24 27 21 28 23 29 22 30
REMARK H PARENT 2 12 26 22
ROOT
ATOM      1  S   UNL     1     -35.439 151.599   6.121  1.00  0.00    -0.089 SA
ENDROOT
BRANCH   1   2
ATOM      2  C   UNL     1     -36.894 150.659   5.659  1.00  0.00    +0.025 A 
ATOM      3  C   UNL     1     -36.872 149.529   4.823  1.00  0.00    +0.053 A 
ATOM      4  C   UNL     1     -38.059 148.816   4.574  1.00  0.00    +0.015 A 
ATOM      5  C   UNL     1     -39.268 149.241   5.124  1.00  0.00    +0.001 A 
ATOM      6  C   UNL     1     -38.123 151.077   6.197  1.00  0.00    +0.016 A 
ATOM      7  C   UNL     1     -39.300 150.374   5.930  1.00  0.00    +0.001 A 
BRANCH   3   8
ATOM      8  C   UNL     1     -35.645 148.990   4.184  1.00  0.00    +0.252 C 
ATOM      9  N   UNL     1     -35.558 149.127   2.816  1.00  0.00    -0.355 N 
ATOM     10  O   UNL     1     -34.794 148.436   4.870  1.00  0.00    -0.269 OA
ATOM     11  C   UNL     1     -34.370 148.738   2.101  1.00  0.00    +0.143 C 
ATOM     12  H   UNL     1     -36.223 149.731   2.349  1.00  0.00    +0.163 HD
ENDBRANCH   3   8
ENDBRANCH   1   2
BRANCH   1  13
ATOM     13  C   UNL     1     -35.911 153.221   5.533  1.00  0.00    +0.014 A 
ATOM     14  C   UNL     1     -37.206 153.420   5.045  1.00  0.00    +0.016 A 
ATOM     15  C   UNL     1     -34.986 154.277   5.545  1.00  0.00    +0.043 A 
ATOM     16  C   UNL     1     -37.618 154.676   4.574  1.00  0.00    +0.014 A 
ATOM     17  C   UNL     1     -35.423 155.521   5.077  1.00  0.00    +0.067 A 
ATOM     18  C   UNL     1     -36.706 155.749   4.595  1.00  0.00    +0.027 A 
ATOM     19  N   UNL     1     -34.782 156.724   4.977  1.00  0.00    -0.277 N 
ATOM     20  C   UNL     1     -36.721 157.129   4.227  1.00  0.00    +0.093 A 
ATOM     21  N   UNL     1     -35.534 157.711   4.466  1.00  0.00    -0.175 NA
ATOM     22  H   UNL     1     -33.829 156.937   5.245  1.00  0.00    +0.190 HD
BRANCH  20  23
ATOM     23  C   UNL     1     -37.852 157.813   3.671  1.00  0.00    +0.033 C 
ATOM     24  C   UNL     1     -38.123 157.905   2.358  1.00  0.00    +0.030 C 
BRANCH  24  25
ATOM     25  C   UNL     1     -39.285 158.609   1.804  1.00  0.00    +0.063 A 
ATOM     26  C   UNL     1     -40.535 158.463   2.399  1.00  0.00    +0.028 A 
ATOM     27  N   UNL     1     -39.087 159.387   0.712  1.00  0.00    -0.257 NA
ATOM     28  C   UNL     1     -41.624 159.142   1.855  1.00  0.00    +0.004 A 
ATOM     29  C   UNL     1     -40.161 160.032   0.206  1.00  0.00    +0.111 A 
ATOM     30  C   UNL     1     -41.436 159.943   0.736  1.00  0.00    +0.020 A 
ENDBRANCH  24  25
ENDBRANCH  20  23
ENDBRANCH   1  13
TORSDOF 5
ENDMDL
MODEL 10
REMARK VINA RESULT:    -8.573      6.959     11.944
REMARK INTER + INTRA:         -11.005
REMARK INTER:                 -10.410
REMARK INTRA:                  -0.596
REMARK UNBOUND:                 0.074
REMARK SMILES CNC(=O)c1ccccc1Sc1ccc2c(/C=C/c3ccccn3)n[nH]c2c1
REMARK SMILES IDX 11 1 10 2 5 3 6 4 7 5 9 6 8 7 3 8 2 9 4 10 1 11 12 13 13 14
REMARK SMILES IDX 28 15 14 16 27 17 15 18 26 19 16 20 25 21 17 23 18 24 19 25
REMARK SMILES IDX 20 26 24 27 21 28 23 29 22 30
REMARK H PARENT 2 12 26 22
ROOT
ATOM      1  S   UNL     1     -35.542 152.034   8.049  1.00  0.00    -0.089 SA
ENDROOT
BRANCH   1   2
ATOM      2  C   UNL     1     -35.363 150.671   6.898  1.00  0.00    +0.025 A 
ATOM      3  C   UNL     1     -35.138 149.337   7.281  1.00  0.00    +0.053 A 
ATOM      4  C   UNL     1     -35.081 148.326   6.305  1.00  0.00    +0.015 A 
ATOM      5  C   UNL     1     -35.213 148.639   4.953  1.00  0.00    +0.001 A 
ATOM      6  C   UNL     1     -35.485 150.969   5.530  1.00  0.00    +0.016 A 
ATOM      7  C   UNL     1     -35.408 149.961   4.566  1.00  0.00    +0.001 A 
BRANCH   3   8
ATOM      8  C   UNL     1     -34.981 148.890   8.688  1.00  0.00    +0.252 C 
ATOM      9  N   UNL     1     -33.731 149.045   9.243  1.00  0.00    -0.355 N 
ATOM     10  O   UNL     1     -35.933 148.391   9.278  1.00  0.00    -0.269 OA
ATOM     11  C   UNL     1     -33.487 148.747  10.630  1.00  0.00    +0.143 C 
ATOM     12  H   UNL     1     -33.049 149.606   8.746  1.00  0.00    +0.163 HD
ENDBRANCH   3   8
ENDBRANCH   1   2
BRANCH   1  13
ATOM     13  C   UNL     1     -35.990 153.346   6.917  1.00  0.00    +0.014 A 
ATOM     14  C   UNL     1     -37.337 153.536   6.593  1.00  0.00    +0.016 A 
ATOM     15  C   UNL     1     -34.999 154.161   6.349  1.00  0.00    +0.043 A 
ATOM     16  C   UNL     1     -37.731 154.553   5.710  1.00  0.00    +0.014 A 
ATOM     17  C   UNL     1     -35.419 155.172   5.478  1.00  0.00    +0.067 A 
ATOM     18  C   UNL     1     -36.750 155.390   5.144  1.00  0.00    +0.027 A 
ATOM     19  N   UNL     1     -34.716 156.121   4.791  1.00  0.00    -0.277 N 
ATOM     20  C   UNL     1     -36.727 156.497   4.241  1.00  0.00    +0.093 A 
ATOM     21  N   UNL     1     -35.473 156.932   4.035  1.00  0.00    -0.175 NA
ATOM     22  H   UNL     1     -33.714 156.270   4.798  1.00  0.00    +0.190 HD
BRANCH  20  23
ATOM     23  C   UNL     1     -37.887 157.075   3.630  1.00  0.00    +0.033 C 
ATOM     24  C   UNL     1     -37.873 157.824   2.513  1.00  0.00    +0.030 C 
BRANCH  24  25
ATOM     25  C   UNL     1     -39.069 158.410   1.898  1.00  0.00    +0.063 A 
ATOM     26  C   UNL     1     -40.286 158.372   2.574  1.00  0.00    +0.028 A 
ATOM     27  N   UNL     1     -38.934 158.973   0.673  1.00  0.00    -0.257 NA
ATOM     28  C   UNL     1     -41.409 158.936   1.969  1.00  0.00    +0.004 A 
ATOM     29  C   UNL     1     -40.040 159.510   0.112  1.00  0.00    +0.111 A 
ATOM     30  C   UNL     1     -41.287 159.516   0.714  1.00  0.00    +0.020 A 
ENDBRANCH  24  25
ENDBRANCH  20  23
ENDBRANCH   1  13
TORSDOF 5
ENDMDL
