MODEL 1
REMARK VINA RESULT:   -10.123      0.000      0.000
REMARK INTER + INTRA:         -14.144
REMARK INTER:                 -13.674
REMARK INTRA:                  -0.470
REMARK UNBOUND:                -0.470
REMARK SMILES COc1cc2nccc(Oc3ccc(NC(=O)NC4CC4)c(Cl)c3)c2cc1C(N)=O
REMARK SMILES IDX 10 1 9 2 3 3 4 4 27 5 5 6 26 7 6 8 25 9 7 10 8 11 2 12 1 13
REMARK SMILES IDX 28 14 29 15 30 16 11 19 12 20 24 21 13 22 22 23 14 24 23 25
REMARK SMILES IDX 15 26 16 27 17 28 18 29 19 32 20 33 21 34
REMARK H PARENT 29 17 29 18 15 30 18 31
ROOT
ATOM      1  O   UNL     1     -39.348 160.576  -3.299  1.00  0.00    -0.457 OA
ENDROOT
BRANCH   1   2
ATOM      2  C   UNL     1     -39.026 161.916  -3.244  1.00  0.00    +0.138 A 
ATOM      3  C   UNL     1     -37.729 163.967  -6.677  1.00  0.00    +0.133 A 
ATOM      4  C   UNL     1     -37.878 164.616  -5.448  1.00  0.00    +0.076 A 
ATOM      5  C   UNL     1     -37.983 162.601  -6.782  1.00  0.00    +0.082 A 
ATOM      6  C   UNL     1     -38.315 163.942  -4.317  1.00  0.00    +0.078 A 
ATOM      7  C   UNL     1     -38.425 161.901  -5.653  1.00  0.00    +0.032 A 
ATOM      8  N   UNL     1     -38.455 164.626  -3.168  1.00  0.00    -0.256 NA
ATOM      9  C   UNL     1     -38.595 162.564  -4.417  1.00  0.00    +0.044 A 
ATOM     10  C   UNL     1     -38.896 163.968  -2.074  1.00  0.00    +0.115 A 
ATOM     11  C   UNL     1     -39.201 162.624  -2.060  1.00  0.00    +0.068 A 
BRANCH   3  12
ATOM     12  O   UNL     1     -37.221 164.675  -7.735  1.00  0.00    -0.496 OA
ATOM     13  C   UNL     1     -38.083 165.765  -8.068  1.00  0.00    +0.278 C 
ENDBRANCH   3  12
BRANCH   5  14
ATOM     14  C   UNL     1     -37.831 161.883  -8.069  1.00  0.00    +0.252 C 
ATOM     15  N   UNL     1     -38.508 162.413  -9.134  1.00  0.00    -0.365 N 
ATOM     16  O   UNL     1     -37.133 160.886  -8.187  1.00  0.00    -0.269 OA
ATOM     17  H   UNL     1     -39.265 163.071  -9.007  1.00  0.00    +0.159 HD
ATOM     18  H   UNL     1     -38.511 161.852  -9.978  1.00  0.00    +0.159 HD
ENDBRANCH   5  14
ENDBRANCH   1   2
BRANCH   1  19
ATOM     19  C   UNL     1     -39.186 159.838  -2.146  1.00  0.00    +0.129 A 
ATOM     20  C   UNL     1     -38.176 158.892  -1.965  1.00  0.00    +0.049 A 
ATOM     21  C   UNL     1     -40.143 160.030  -1.153  1.00  0.00    +0.069 A 
ATOM     22  C   UNL     1     -38.105 158.156  -0.776  1.00  0.00    +0.031 A 
ATOM     23  C   UNL     1     -40.068 159.295   0.033  1.00  0.00    +0.068 A 
ATOM     24  C   UNL     1     -39.050 158.345   0.236  1.00  0.00    +0.061 A 
ATOM     25 Cl   UNL     1     -41.271 159.584   1.245  1.00  0.00    -0.082 Cl
BRANCH  24  26
ATOM     26  N   UNL     1     -39.024 157.636   1.460  1.00  0.00    -0.307 N 
ATOM     27  C   UNL     1     -38.068 157.688   2.452  1.00  0.00    +0.319 C 
ATOM     28  O   UNL     1     -37.020 158.320   2.416  1.00  0.00    -0.248 OA
ATOM     29  N   UNL     1     -38.433 156.898   3.531  1.00  0.00    -0.335 N 
ATOM     30  H   UNL     1     -39.718 156.905   1.547  1.00  0.00    +0.171 HD
ATOM     31  H   UNL     1     -39.421 156.717   3.640  1.00  0.00    +0.165 HD
BRANCH  29  32
ATOM     32  C   UNL     1     -37.624 156.821   4.709  1.00  0.00    +0.084 C 
ATOM     33  C   UNL     1     -37.778 155.674   5.669  1.00  0.00    +0.027 C 
ATOM     34  C   UNL     1     -36.540 155.783   4.826  1.00  0.00    +0.027 C 
ENDBRANCH  29  32
ENDBRANCH  24  26
ENDBRANCH   1  19
TORSDOF 6
ENDMDL
MODEL 2
REMARK VINA RESULT:    -9.260      1.289      1.450
REMARK INTER + INTRA:         -12.978
REMARK INTER:                 -12.801
REMARK INTRA:                  -0.177
REMARK UNBOUND:                -0.470
REMARK SMILES COc1cc2nccc(Oc3ccc(NC(=O)NC4CC4)c(Cl)c3)c2cc1C(N)=O
REMARK SMILES IDX 10 1 9 2 3 3 4 4 27 5 5 6 26 7 6 8 25 9 7 10 8 11 2 12 1 13
REMARK SMILES IDX 28 14 29 15 30 16 11 19 12 20 24 21 13 22 22 23 14 24 23 25
REMARK SMILES IDX 15 26 16 27 17 28 18 29 19 32 20 33 21 34
REMARK H PARENT 29 17 29 18 15 30 18 31
ROOT
ATOM      1  O   UNL     1     -39.081 161.308  -4.060  1.00  0.00    -0.457 OA
ENDROOT
BRANCH   1   2
ATOM      2  C   UNL     1     -38.867 162.656  -4.255  1.00  0.00    +0.138 A 
ATOM      3  C   UNL     1     -37.841 164.153  -8.048  1.00  0.00    +0.133 A 
ATOM      4  C   UNL     1     -38.005 164.997  -6.946  1.00  0.00    +0.076 A 
ATOM      5  C   UNL     1     -37.986 162.775  -7.900  1.00  0.00    +0.082 A 
ATOM      6  C   UNL     1     -38.353 164.506  -5.697  1.00  0.00    +0.078 A 
ATOM      7  C   UNL     1     -38.337 162.257  -6.648  1.00  0.00    +0.032 A 
ATOM      8  N   UNL     1     -38.514 165.370  -4.680  1.00  0.00    -0.256 NA
ATOM      9  C   UNL     1     -38.523 163.115  -5.541  1.00  0.00    +0.044 A 
ATOM     10  C   UNL     1     -38.869 164.887  -3.470  1.00  0.00    +0.115 A 
ATOM     11  C   UNL     1     -39.064 163.549  -3.208  1.00  0.00    +0.068 A 
BRANCH   3  12
ATOM     12  O   UNL     1     -37.423 164.697  -9.234  1.00  0.00    -0.496 OA
ATOM     13  C   UNL     1     -38.224 165.829  -9.575  1.00  0.00    +0.278 C 
ENDBRANCH   3  12
BRANCH   5  14
ATOM     14  C   UNL     1     -37.814 161.852  -9.047  1.00  0.00    +0.252 C 
ATOM     15  N   UNL     1     -38.603 162.099 -10.138  1.00  0.00    -0.365 N 
ATOM     16  O   UNL     1     -37.010 160.932  -9.035  1.00  0.00    -0.269 OA
ATOM     17  H   UNL     1     -39.426 162.684 -10.076  1.00  0.00    +0.159 HD
ATOM     18  H   UNL     1     -38.582 161.395 -10.866  1.00  0.00    +0.159 HD
ENDBRANCH   5  14
ENDBRANCH   1   2
BRANCH   1  19
ATOM     19  C   UNL     1     -38.995 160.833  -2.769  1.00  0.00    +0.129 A 
ATOM     20  C   UNL     1     -37.882 160.162  -2.261  1.00  0.00    +0.049 A 
ATOM     21  C   UNL     1     -40.129 160.995  -1.977  1.00  0.00    +0.069 A 
ATOM     22  C   UNL     1     -37.891 159.678  -0.947  1.00  0.00    +0.031 A 
ATOM     23  C   UNL     1     -40.133 160.511  -0.666  1.00  0.00    +0.068 A 
ATOM     24  C   UNL     1     -39.015 159.842  -0.135  1.00  0.00    +0.061 A 
ATOM     25 Cl   UNL     1     -41.561 160.754   0.284  1.00  0.00    -0.082 Cl
BRANCH  24  26
ATOM     26  N   UNL     1     -39.079 159.380   1.201  1.00  0.00    -0.307 N 
ATOM     27  C   UNL     1     -38.352 158.364   1.784  1.00  0.00    +0.319 C 
ATOM     28  O   UNL     1     -37.556 157.625   1.217  1.00  0.00    -0.248 OA
ATOM     29  N   UNL     1     -38.649 158.256   3.134  1.00  0.00    -0.335 N 
ATOM     30  H   UNL     1     -39.846 159.749   1.748  1.00  0.00    +0.171 HD
ATOM     31  H   UNL     1     -39.009 159.087   3.581  1.00  0.00    +0.165 HD
BRANCH  29  32
ATOM     32  C   UNL     1     -37.989 157.300   3.971  1.00  0.00    +0.084 C 
ATOM     33  C   UNL     1     -36.488 157.253   4.041  1.00  0.00    +0.027 C 
ATOM     34  C   UNL     1     -37.277 157.741   5.221  1.00  0.00    +0.027 C 
ENDBRANCH  29  32
ENDBRANCH  24  26
ENDBRANCH   1  19
TORSDOF 6
ENDMDL
MODEL 3
REMARK VINA RESULT:    -8.991      3.461     11.260
REMARK INTER + INTRA:         -12.615
REMARK INTER:                 -11.721
REMARK INTRA:                  -0.894
REMARK UNBOUND:                -0.470
REMARK SMILES COc1cc2nccc(Oc3ccc(NC(=O)NC4CC4)c(Cl)c3)c2cc1C(N)=O
REMARK SMILES IDX 10 1 9 2 3 3 4 4 27 5 5 6 26 7 6 8 25 9 7 10 8 11 2 12 1 13
REMARK SMILES IDX 28 14 29 15 30 16 11 19 12 20 24 21 13 22 22 23 14 24 23 25
REMARK SMILES IDX 15 26 16 27 17 28 18 29 19 32 20 33 21 34
REMARK H PARENT 29 17 29 18 15 30 18 31
ROOT
ATOM      1  O   UNL     1     -38.702 157.237   3.238  1.00  0.00    -0.457 OA
ENDROOT
BRANCH   1   2
ATOM      2  C   UNL     1     -37.488 157.208   3.891  1.00  0.00    +0.138 A 
ATOM      3  C   UNL     1     -36.043 153.653   5.608  1.00  0.00    +0.133 A 
ATOM      4  C   UNL     1     -35.306 154.840   5.651  1.00  0.00    +0.076 A 
ATOM      5  C   UNL     1     -37.303 153.633   5.013  1.00  0.00    +0.082 A 
ATOM      6  C   UNL     1     -35.778 156.011   5.076  1.00  0.00    +0.078 A 
ATOM      7  C   UNL     1     -37.798 154.804   4.427  1.00  0.00    +0.032 A 
ATOM      8  N   UNL     1     -35.015 157.117   5.135  1.00  0.00    -0.256 NA
ATOM      9  C   UNL     1     -37.042 155.997   4.453  1.00  0.00    +0.044 A 
ATOM     10  C   UNL     1     -35.472 158.250   4.560  1.00  0.00    +0.115 A 
ATOM     11  C   UNL     1     -36.690 158.347   3.923  1.00  0.00    +0.068 A 
BRANCH   3  12
ATOM     12  O   UNL     1     -35.552 152.553   6.261  1.00  0.00    -0.496 OA
ATOM     13  C   UNL     1     -34.431 152.013   5.559  1.00  0.00    +0.278 C 
ENDBRANCH   3  12
BRANCH   5  14
ATOM     14  C   UNL     1     -38.110 152.393   4.954  1.00  0.00    +0.252 C 
ATOM     15  N   UNL     1     -38.320 151.757   6.149  1.00  0.00    -0.365 N 
ATOM     16  O   UNL     1     -38.578 151.961   3.910  1.00  0.00    -0.269 OA
ATOM     17  H   UNL     1     -37.752 151.955   6.961  1.00  0.00    +0.159 HD
ATOM     18  H   UNL     1     -38.756 150.845   6.092  1.00  0.00    +0.159 HD
ENDBRANCH   5  14
ENDBRANCH   1   2
BRANCH   1  19
ATOM     19  C   UNL     1     -38.870 158.189   2.255  1.00  0.00    +0.129 A 
ATOM     20  C   UNL     1     -39.544 159.396   2.451  1.00  0.00    +0.049 A 
ATOM     21  C   UNL     1     -38.382 157.864   0.992  1.00  0.00    +0.069 A 
ATOM     22  C   UNL     1     -39.705 160.293   1.388  1.00  0.00    +0.031 A 
ATOM     23  C   UNL     1     -38.543 158.762  -0.065  1.00  0.00    +0.068 A 
ATOM     24  C   UNL     1     -39.210 159.988   0.117  1.00  0.00    +0.061 A 
ATOM     25 Cl   UNL     1     -37.901 158.319  -1.612  1.00  0.00    -0.082 Cl
BRANCH  24  26
ATOM     26  N   UNL     1     -39.337 160.858  -0.991  1.00  0.00    -0.307 N 
ATOM     27  C   UNL     1     -38.960 162.181  -1.080  1.00  0.00    +0.319 C 
ATOM     28  O   UNL     1     -38.502 162.866  -0.175  1.00  0.00    -0.248 OA
ATOM     29  N   UNL     1     -39.185 162.673  -2.357  1.00  0.00    -0.335 N 
ATOM     30  H   UNL     1     -39.895 160.501  -1.756  1.00  0.00    +0.171 HD
ATOM     31  H   UNL     1     -39.211 161.991  -3.101  1.00  0.00    +0.165 HD
BRANCH  29  32
ATOM     32  C   UNL     1     -38.833 164.014  -2.714  1.00  0.00    +0.084 C 
ATOM     33  C   UNL     1     -37.892 164.280  -3.856  1.00  0.00    +0.027 C 
ATOM     34  C   UNL     1     -39.347 164.626  -3.989  1.00  0.00    +0.027 C 
ENDBRANCH  29  32
ENDBRANCH  24  26
ENDBRANCH   1  19
TORSDOF 6
ENDMDL
MODEL 4
REMARK VINA RESULT:    -8.744      3.209     11.274
REMARK INTER + INTRA:         -12.282
REMARK INTER:                 -11.519
REMARK INTRA:                  -0.763
REMARK UNBOUND:                -0.470
REMARK SMILES COc1cc2nccc(Oc3ccc(NC(=O)NC4CC4)c(Cl)c3)c2cc1C(N)=O
REMARK SMILES IDX 10 1 9 2 3 3 4 4 27 5 5 6 26 7 6 8 25 9 7 10 8 11 2 12 1 13
REMARK SMILES IDX 28 14 29 15 30 16 11 19 12 20 24 21 13 22 22 23 14 24 23 25
REMARK SMILES IDX 15 26 16 27 17 28 18 29 19 32 20 33 21 34
REMARK H PARENT 29 17 29 18 15 30 18 31
ROOT
ATOM      1  O   UNL     1     -38.703 157.339   3.981  1.00  0.00    -0.457 OA
ENDROOT
BRANCH   1   2
ATOM      2  C   UNL     1     -37.426 157.177   4.475  1.00  0.00    +0.138 A 
ATOM      3  C   UNL     1     -35.962 153.363   5.471  1.00  0.00    +0.133 A 
ATOM      4  C   UNL     1     -35.171 154.509   5.599  1.00  0.00    +0.076 A 
ATOM      5  C   UNL     1     -37.281 153.470   5.033  1.00  0.00    +0.082 A 
ATOM      6  C   UNL     1     -35.650 155.766   5.261  1.00  0.00    +0.078 A 
ATOM      7  C   UNL     1     -37.785 154.729   4.687  1.00  0.00    +0.032 A 
ATOM      8  N   UNL     1     -34.834 156.827   5.390  1.00  0.00    -0.256 NA
ATOM      9  C   UNL     1     -36.976 155.882   4.797  1.00  0.00    +0.044 A 
ATOM     10  C   UNL     1     -35.301 158.046   5.044  1.00  0.00    +0.115 A 
ATOM     11  C   UNL     1     -36.577 158.274   4.577  1.00  0.00    +0.068 A 
BRANCH   3  12
ATOM     12  O   UNL     1     -35.452 152.164   5.894  1.00  0.00    -0.496 OA
ATOM     13  C   UNL     1     -35.342 152.141   7.318  1.00  0.00    +0.278 C 
ENDBRANCH   3  12
BRANCH   5  14
ATOM     14  C   UNL     1     -38.147 152.276   4.891  1.00  0.00    +0.252 C 
ATOM     15  N   UNL     1     -38.444 151.900   3.608  1.00  0.00    -0.365 N 
ATOM     16  O   UNL     1     -38.565 151.648   5.853  1.00  0.00    -0.269 OA
ATOM     17  H   UNL     1     -38.318 152.531   2.829  1.00  0.00    +0.159 HD
ATOM     18  H   UNL     1     -39.138 151.169   3.513  1.00  0.00    +0.159 HD
ENDBRANCH   5  14
ENDBRANCH   1   2
BRANCH   1  19
ATOM     19  C   UNL     1     -38.833 157.911   2.734  1.00  0.00    +0.129 A 
ATOM     20  C   UNL     1     -37.809 157.947   1.786  1.00  0.00    +0.049 A 
ATOM     21  C   UNL     1     -40.049 158.535   2.466  1.00  0.00    +0.069 A 
ATOM     22  C   UNL     1     -38.011 158.583   0.555  1.00  0.00    +0.031 A 
ATOM     23  C   UNL     1     -40.247 159.168   1.237  1.00  0.00    +0.068 A 
ATOM     24  C   UNL     1     -39.229 159.204   0.265  1.00  0.00    +0.061 A 
ATOM     25 Cl   UNL     1     -41.783 159.913   0.945  1.00  0.00    -0.082 Cl
BRANCH  24  26
ATOM     26  N   UNL     1     -39.492 159.855  -0.962  1.00  0.00    -0.307 N 
ATOM     27  C   UNL     1     -39.324 161.189  -1.270  1.00  0.00    +0.319 C 
ATOM     28  O   UNL     1     -38.975 162.072  -0.497  1.00  0.00    -0.248 OA
ATOM     29  N   UNL     1     -39.627 161.430  -2.601  1.00  0.00    -0.335 N 
ATOM     30  H   UNL     1     -39.991 159.300  -1.646  1.00  0.00    +0.171 HD
ATOM     31  H   UNL     1     -39.550 160.642  -3.228  1.00  0.00    +0.165 HD
BRANCH  29  32
ATOM     32  C   UNL     1     -39.488 162.734  -3.175  1.00  0.00    +0.084 C 
ATOM     33  C   UNL     1     -38.162 163.195  -3.715  1.00  0.00    +0.027 C 
ATOM     34  C   UNL     1     -39.292 162.900  -4.658  1.00  0.00    +0.027 C 
ENDBRANCH  29  32
ENDBRANCH  24  26
ENDBRANCH   1  19
TORSDOF 6
ENDMDL
MODEL 5
REMARK VINA RESULT:    -8.723      3.031      5.087
REMARK INTER + INTRA:         -12.253
REMARK INTER:                 -12.764
REMARK INTRA:                   0.511
REMARK UNBOUND:                -0.470
REMARK SMILES COc1cc2nccc(Oc3ccc(NC(=O)NC4CC4)c(Cl)c3)c2cc1C(N)=O
REMARK SMILES IDX 10 1 9 2 3 3 4 4 27 5 5 6 26 7 6 8 25 9 7 10 8 11 2 12 1 13
REMARK SMILES IDX 28 14 29 15 30 16 11 19 12 20 24 21 13 22 22 23 14 24 23 25
REMARK SMILES IDX 15 26 16 27 17 28 18 29 19 32 20 33 21 34
REMARK H PARENT 29 17 29 18 15 30 18 31
ROOT
ATOM      1  O   UNL     1     -38.676 163.233  -6.241  1.00  0.00    -0.457 OA
ENDROOT
BRANCH   1   2
ATOM      2  C   UNL     1     -38.036 162.624  -7.300  1.00  0.00    +0.138 A 
ATOM      3  C   UNL     1     -36.732 164.863 -10.611  1.00  0.00    +0.133 A 
ATOM      4  C   UNL     1     -36.512 163.485 -10.525  1.00  0.00    +0.076 A 
ATOM      5  C   UNL     1     -37.426 165.525  -9.599  1.00  0.00    +0.082 A 
ATOM      6  C   UNL     1     -36.934 162.747  -9.429  1.00  0.00    +0.078 A 
ATOM      7  C   UNL     1     -37.860 164.800  -8.484  1.00  0.00    +0.032 A 
ATOM      8  N   UNL     1     -36.676 161.428  -9.396  1.00  0.00    -0.256 NA
ATOM      9  C   UNL     1     -37.618 163.411  -8.389  1.00  0.00    +0.044 A 
ATOM     10  C   UNL     1     -37.075 160.718  -8.319  1.00  0.00    +0.115 A 
ATOM     11  C   UNL     1     -37.747 161.265  -7.248  1.00  0.00    +0.068 A 
BRANCH   3  12
ATOM     12  O   UNL     1     -36.357 165.516 -11.756  1.00  0.00    -0.496 OA
ATOM     13  C   UNL     1     -34.954 165.785 -11.742  1.00  0.00    +0.278 C 
ENDBRANCH   3  12
BRANCH   5  14
ATOM     14  C   UNL     1     -37.679 166.983  -9.662  1.00  0.00    +0.252 C 
ATOM     15  N   UNL     1     -37.177 167.724  -8.626  1.00  0.00    -0.365 N 
ATOM     16  O   UNL     1     -38.285 167.506 -10.587  1.00  0.00    -0.269 OA
ATOM     17  H   UNL     1     -36.898 167.295  -7.754  1.00  0.00    +0.159 HD
ATOM     18  H   UNL     1     -37.462 168.696  -8.601  1.00  0.00    +0.159 HD
ENDBRANCH   5  14
ENDBRANCH   1   2
BRANCH   1  19
ATOM     19  C   UNL     1     -38.733 162.539  -5.051  1.00  0.00    +0.129 A 
ATOM     20  C   UNL     1     -38.908 161.158  -4.965  1.00  0.00    +0.049 A 
ATOM     21  C   UNL     1     -38.670 163.304  -3.889  1.00  0.00    +0.069 A 
ATOM     22  C   UNL     1     -38.993 160.534  -3.714  1.00  0.00    +0.031 A 
ATOM     23  C   UNL     1     -38.754 162.679  -2.643  1.00  0.00    +0.068 A 
ATOM     24  C   UNL     1     -38.921 161.285  -2.538  1.00  0.00    +0.061 A 
ATOM     25 Cl   UNL     1     -38.653 163.672  -1.227  1.00  0.00    -0.082 Cl
BRANCH  24  26
ATOM     26  N   UNL     1     -38.993 160.710  -1.248  1.00  0.00    -0.307 N 
ATOM     27  C   UNL     1     -40.049 160.743  -0.361  1.00  0.00    +0.319 C 
ATOM     28  O   UNL     1     -41.104 161.346  -0.513  1.00  0.00    -0.248 OA
ATOM     29  N   UNL     1     -39.761 160.003   0.775  1.00  0.00    -0.335 N 
ATOM     30  H   UNL     1     -38.118 160.355  -0.886  1.00  0.00    +0.171 HD
ATOM     31  H   UNL     1     -39.069 159.274   0.672  1.00  0.00    +0.165 HD
BRANCH  29  32
ATOM     32  C   UNL     1     -40.719 159.847   1.828  1.00  0.00    +0.084 C 
ATOM     33  C   UNL     1     -41.992 159.081   1.596  1.00  0.00    +0.027 C 
ATOM     34  C   UNL     1     -40.925 158.507   2.482  1.00  0.00    +0.027 C 
ENDBRANCH  29  32
ENDBRANCH  24  26
ENDBRANCH   1  19
TORSDOF 6
ENDMDL
MODEL 6
REMARK VINA RESULT:    -8.649      5.658     13.453
REMARK INTER + INTRA:         -12.153
REMARK INTER:                 -11.025
REMARK INTRA:                  -1.128
REMARK UNBOUND:                -0.470
REMARK SMILES COc1cc2nccc(Oc3ccc(NC(=O)NC4CC4)c(Cl)c3)c2cc1C(N)=O
REMARK SMILES IDX 10 1 9 2 3 3 4 4 27 5 5 6 26 7 6 8 25 9 7 10 8 11 2 12 1 13
REMARK SMILES IDX 28 14 29 15 30 16 11 19 12 20 24 21 13 22 22 23 14 24 23 25
REMARK SMILES IDX 15 26 16 27 17 28 18 29 19 32 20 33 21 34
REMARK H PARENT 29 17 29 18 15 30 18 31
ROOT
ATOM      1  O   UNL     1     -37.040 154.023   6.899  1.00  0.00    -0.457 OA
ENDROOT
BRANCH   1   2
ATOM      2  C   UNL     1     -36.208 152.951   6.653  1.00  0.00    +0.138 A 
ATOM      3  C   UNL     1     -37.780 149.159   5.746  1.00  0.00    +0.133 A 
ATOM      4  C   UNL     1     -36.402 149.392   5.782  1.00  0.00    +0.076 A 
ATOM      5  C   UNL     1     -38.671 150.188   6.044  1.00  0.00    +0.082 A 
ATOM      6  C   UNL     1     -35.883 150.645   6.072  1.00  0.00    +0.078 A 
ATOM      7  C   UNL     1     -38.169 151.460   6.339  1.00  0.00    +0.032 A 
ATOM      8  N   UNL     1     -34.548 150.810   6.074  1.00  0.00    -0.256 NA
ATOM      9  C   UNL     1     -36.776 151.698   6.355  1.00  0.00    +0.044 A 
ATOM     10  C   UNL     1     -34.049 152.036   6.341  1.00  0.00    +0.115 A 
ATOM     11  C   UNL     1     -34.829 153.134   6.627  1.00  0.00    +0.068 A 
BRANCH   3  12
ATOM     12  O   UNL     1     -38.223 147.881   5.528  1.00  0.00    -0.496 OA
ATOM     13  C   UNL     1     -37.943 147.476   4.187  1.00  0.00    +0.278 C 
ENDBRANCH   3  12
BRANCH   5  14
ATOM     14  C   UNL     1     -40.137 149.973   6.019  1.00  0.00    +0.252 C 
ATOM     15  N   UNL     1     -40.727 150.008   4.784  1.00  0.00    -0.365 N 
ATOM     16  O   UNL     1     -40.788 149.761   7.032  1.00  0.00    -0.269 OA
ATOM     17  H   UNL     1     -40.260 150.417   3.985  1.00  0.00    +0.159 HD
ATOM     18  H   UNL     1     -41.739 149.994   4.778  1.00  0.00    +0.159 HD
ENDBRANCH   5  14
ENDBRANCH   1   2
BRANCH   1  19
ATOM     19  C   UNL     1     -37.244 154.917   5.871  1.00  0.00    +0.129 A 
ATOM     20  C   UNL     1     -37.632 154.544   4.583  1.00  0.00    +0.049 A 
ATOM     21  C   UNL     1     -36.976 156.254   6.154  1.00  0.00    +0.069 A 
ATOM     22  C   UNL     1     -37.781 155.513   3.583  1.00  0.00    +0.031 A 
ATOM     23  C   UNL     1     -37.127 157.218   5.155  1.00  0.00    +0.068 A 
ATOM     24  C   UNL     1     -37.528 156.860   3.854  1.00  0.00    +0.061 A 
ATOM     25 Cl   UNL     1     -36.799 158.869   5.563  1.00  0.00    -0.082 Cl
BRANCH  24  26
ATOM     26  N   UNL     1     -37.668 157.882   2.886  1.00  0.00    -0.307 N 
ATOM     27  C   UNL     1     -38.827 158.346   2.302  1.00  0.00    +0.319 C 
ATOM     28  O   UNL     1     -39.954 157.898   2.472  1.00  0.00    -0.248 OA
ATOM     29  N   UNL     1     -38.560 159.407   1.450  1.00  0.00    -0.335 N 
ATOM     30  H   UNL     1     -36.801 158.211   2.480  1.00  0.00    +0.171 HD
ATOM     31  H   UNL     1     -37.715 159.929   1.636  1.00  0.00    +0.165 HD
BRANCH  29  32
ATOM     32  C   UNL     1     -39.608 160.091   0.756  1.00  0.00    +0.084 C 
ATOM     33  C   UNL     1     -39.288 161.108  -0.304  1.00  0.00    +0.027 C 
ATOM     34  C   UNL     1     -39.892 159.789  -0.690  1.00  0.00    +0.027 C 
ENDBRANCH  29  32
ENDBRANCH  24  26
ENDBRANCH   1  19
TORSDOF 6
ENDMDL
MODEL 7
REMARK VINA RESULT:    -8.415      9.390     12.937
REMARK INTER + INTRA:         -11.837
REMARK INTER:                 -10.460
REMARK INTRA:                  -1.377
REMARK UNBOUND:                -0.470
REMARK SMILES COc1cc2nccc(Oc3ccc(NC(=O)NC4CC4)c(Cl)c3)c2cc1C(N)=O
REMARK SMILES IDX 10 1 9 2 3 3 4 4 27 5 5 6 26 7 6 8 25 9 7 10 8 11 2 12 1 13
REMARK SMILES IDX 28 14 29 15 30 16 11 19 12 20 24 21 13 22 22 23 14 24 23 25
REMARK SMILES IDX 15 26 16 27 17 28 18 29 19 32 20 33 21 34
REMARK H PARENT 29 17 29 18 15 30 18 31
ROOT
ATOM      1  O   UNL     1     -37.981 152.485   6.459  1.00  0.00    -0.457 OA
ENDROOT
BRANCH   1   2
ATOM      2  C   UNL     1     -36.603 152.508   6.425  1.00  0.00    +0.138 A 
ATOM      3  C   UNL     1     -34.535 155.815   4.855  1.00  0.00    +0.133 A 
ATOM      4  C   UNL     1     -33.859 154.712   5.386  1.00  0.00    +0.076 A 
ATOM      5  C   UNL     1     -35.928 155.825   4.808  1.00  0.00    +0.082 A 
ATOM      6  C   UNL     1     -34.540 153.625   5.912  1.00  0.00    +0.078 A 
ATOM      7  C   UNL     1     -36.635 154.738   5.334  1.00  0.00    +0.032 A 
ATOM      8  N   UNL     1     -33.834 152.602   6.425  1.00  0.00    -0.256 NA
ATOM      9  C   UNL     1     -35.950 153.634   5.889  1.00  0.00    +0.044 A 
ATOM     10  C   UNL     1     -34.503 151.554   6.951  1.00  0.00    +0.115 A 
ATOM     11  C   UNL     1     -35.877 151.461   6.983  1.00  0.00    +0.068 A 
BRANCH   3  12
ATOM     12  O   UNL     1     -33.801 156.821   4.282  1.00  0.00    -0.496 OA
ATOM     13  C   UNL     1     -32.978 157.458   5.261  1.00  0.00    +0.278 C 
ENDBRANCH   3  12
BRANCH   5  14
ATOM     14  C   UNL     1     -36.674 156.976   4.248  1.00  0.00    +0.252 C 
ATOM     15  N   UNL     1     -36.685 158.112   5.013  1.00  0.00    -0.365 N 
ATOM     16  O   UNL     1     -37.236 156.931   3.164  1.00  0.00    -0.269 OA
ATOM     17  H   UNL     1     -36.444 158.093   5.994  1.00  0.00    +0.159 HD
ATOM     18  H   UNL     1     -37.300 158.851   4.695  1.00  0.00    +0.159 HD
ENDBRANCH   5  14
ENDBRANCH   1   2
BRANCH   1  19
ATOM     19  C   UNL     1     -38.622 151.600   5.619  1.00  0.00    +0.129 A 
ATOM     20  C   UNL     1     -38.603 151.698   4.227  1.00  0.00    +0.049 A 
ATOM     21  C   UNL     1     -39.372 150.601   6.234  1.00  0.00    +0.069 A 
ATOM     22  C   UNL     1     -39.312 150.778   3.446  1.00  0.00    +0.031 A 
ATOM     23  C   UNL     1     -40.078 149.684   5.452  1.00  0.00    +0.068 A 
ATOM     24  C   UNL     1     -40.061 149.762   4.047  1.00  0.00    +0.061 A 
ATOM     25 Cl   UNL     1     -40.981 148.449   6.264  1.00  0.00    -0.082 Cl
BRANCH  24  26
ATOM     26  N   UNL     1     -40.792 148.801   3.309  1.00  0.00    -0.307 N 
ATOM     27  C   UNL     1     -40.339 147.610   2.783  1.00  0.00    +0.319 C 
ATOM     28  O   UNL     1     -39.185 147.200   2.805  1.00  0.00    -0.248 OA
ATOM     29  N   UNL     1     -41.375 146.909   2.185  1.00  0.00    -0.335 N 
ATOM     30  H   UNL     1     -41.716 149.093   3.020  1.00  0.00    +0.171 HD
ATOM     31  H   UNL     1     -42.306 147.119   2.514  1.00  0.00    +0.165 HD
BRANCH  29  32
ATOM     32  C   UNL     1     -41.167 145.618   1.603  1.00  0.00    +0.084 C 
ATOM     33  C   UNL     1     -42.325 144.826   1.063  1.00  0.00    +0.027 C 
ATOM     34  C   UNL     1     -41.317 145.414   0.120  1.00  0.00    +0.027 C 
ENDBRANCH  29  32
ENDBRANCH  24  26
ENDBRANCH   1  19
TORSDOF 6
ENDMDL
MODEL 8
REMARK VINA RESULT:    -8.272      3.177     10.542
REMARK INTER + INTRA:         -11.644
REMARK INTER:                 -11.585
REMARK INTRA:                  -0.058
REMARK UNBOUND:                -0.470
REMARK SMILES COc1cc2nccc(Oc3ccc(NC(=O)NC4CC4)c(Cl)c3)c2cc1C(N)=O
REMARK SMILES IDX 10 1 9 2 3 3 4 4 27 5 5 6 26 7 6 8 25 9 7 10 8 11 2 12 1 13
REMARK SMILES IDX 28 14 29 15 30 16 11 19 12 20 24 21 13 22 22 23 14 24 23 25
REMARK SMILES IDX 15 26 16 27 17 28 18 29 19 32 20 33 21 34
REMARK H PARENT 29 17 29 18 15 30 18 31
ROOT
ATOM      1  O   UNL     1     -39.929 162.153  -3.223  1.00  0.00    -0.457 OA
ENDROOT
BRANCH   1   2
ATOM      2  C   UNL     1     -39.173 161.125  -2.699  1.00  0.00    +0.138 A 
ATOM      3  C   UNL     1     -40.411 159.079   0.759  1.00  0.00    +0.133 A 
ATOM      4  C   UNL     1     -39.239 158.731   0.081  1.00  0.00    +0.076 A 
ATOM      5  C   UNL     1     -41.187 160.146   0.311  1.00  0.00    +0.082 A 
ATOM      6  C   UNL     1     -38.835 159.399  -1.065  1.00  0.00    +0.078 A 
ATOM      7  C   UNL     1     -40.797 160.835  -0.843  1.00  0.00    +0.032 A 
ATOM      8  N   UNL     1     -37.707 159.006  -1.683  1.00  0.00    -0.256 NA
ATOM      9  C   UNL     1     -39.624 160.468  -1.539  1.00  0.00    +0.044 A 
ATOM     10  C   UNL     1     -37.327 159.650  -2.807  1.00  0.00    +0.115 A 
ATOM     11  C   UNL     1     -38.023 160.704  -3.358  1.00  0.00    +0.068 A 
BRANCH   3  12
ATOM     12  O   UNL     1     -40.711 158.427   1.926  1.00  0.00    -0.496 OA
ATOM     13  C   UNL     1     -39.520 158.157   2.669  1.00  0.00    +0.278 C 
ENDBRANCH   3  12
BRANCH   5  14
ATOM     14  C   UNL     1     -42.432 160.543   1.009  1.00  0.00    +0.252 C 
ATOM     15  N   UNL     1     -43.029 159.572   1.768  1.00  0.00    -0.365 N 
ATOM     16  O   UNL     1     -42.899 161.670   0.932  1.00  0.00    -0.269 OA
ATOM     17  H   UNL     1     -42.803 158.593   1.649  1.00  0.00    +0.159 HD
ATOM     18  H   UNL     1     -43.944 159.801   2.136  1.00  0.00    +0.159 HD
ENDBRANCH   5  14
ENDBRANCH   1   2
BRANCH   1  19
ATOM     19  C   UNL     1     -39.309 163.009  -4.107  1.00  0.00    +0.129 A 
ATOM     20  C   UNL     1     -39.081 164.361  -3.848  1.00  0.00    +0.049 A 
ATOM     21  C   UNL     1     -38.962 162.472  -5.344  1.00  0.00    +0.069 A 
ATOM     22  C   UNL     1     -38.478 165.173  -4.816  1.00  0.00    +0.031 A 
ATOM     23  C   UNL     1     -38.359 163.284  -6.307  1.00  0.00    +0.068 A 
ATOM     24  C   UNL     1     -38.112 164.647  -6.058  1.00  0.00    +0.061 A 
ATOM     25 Cl   UNL     1     -37.928 162.563  -7.823  1.00  0.00    -0.082 Cl
BRANCH  24  26
ATOM     26  N   UNL     1     -37.494 165.416  -7.072  1.00  0.00    -0.307 N 
ATOM     27  C   UNL     1     -38.078 165.981  -8.185  1.00  0.00    +0.319 C 
ATOM     28  O   UNL     1     -39.246 165.856  -8.533  1.00  0.00    -0.248 OA
ATOM     29  N   UNL     1     -37.153 166.721  -8.906  1.00  0.00    -0.335 N 
ATOM     30  H   UNL     1     -36.482 165.432  -7.042  1.00  0.00    +0.171 HD
ATOM     31  H   UNL     1     -36.355 167.064  -8.391  1.00  0.00    +0.165 HD
BRANCH  29  32
ATOM     32  C   UNL     1     -37.528 167.443 -10.084  1.00  0.00    +0.084 C 
ATOM     33  C   UNL     1     -36.480 167.964 -11.028  1.00  0.00    +0.027 C 
ATOM     34  C   UNL     1     -37.363 166.825 -11.446  1.00  0.00    +0.027 C 
ENDBRANCH  29  32
ENDBRANCH  24  26
ENDBRANCH   1  19
TORSDOF 6
ENDMDL
MODEL 9
REMARK VINA RESULT:    -8.183     11.182     13.910
REMARK INTER + INTRA:         -11.524
REMARK INTER:                 -10.133
REMARK INTRA:                  -1.391
REMARK UNBOUND:                -0.470
REMARK SMILES COc1cc2nccc(Oc3ccc(NC(=O)NC4CC4)c(Cl)c3)c2cc1C(N)=O
REMARK SMILES IDX 10 1 9 2 3 3 4 4 27 5 5 6 26 7 6 8 25 9 7 10 8 11 2 12 1 13
REMARK SMILES IDX 28 14 29 15 30 16 11 19 12 20 24 21 13 22 22 23 14 24 23 25
REMARK SMILES IDX 15 26 16 27 17 28 18 29 19 32 20 33 21 34
REMARK H PARENT 29 17 29 18 15 30 18 31
ROOT
ATOM      1  O   UNL     1     -36.184 152.226   5.127  1.00  0.00    -0.457 OA
ENDROOT
BRANCH   1   2
ATOM      2  C   UNL     1     -36.436 151.053   5.807  1.00  0.00    +0.138 A 
ATOM      3  C   UNL     1     -39.840 148.742   4.940  1.00  0.00    +0.133 A 
ATOM      4  C   UNL     1     -38.908 148.343   5.903  1.00  0.00    +0.076 A 
ATOM      5  C   UNL     1     -39.670 149.948   4.261  1.00  0.00    +0.082 A 
ATOM      6  C   UNL     1     -37.780 149.100   6.183  1.00  0.00    +0.078 A 
ATOM      7  C   UNL     1     -38.539 150.727   4.528  1.00  0.00    +0.032 A 
ATOM      8  N   UNL     1     -36.912 148.654   7.107  1.00  0.00    -0.256 NA
ATOM      9  C   UNL     1     -37.588 150.311   5.486  1.00  0.00    +0.044 A 
ATOM     10  C   UNL     1     -35.808 149.387   7.364  1.00  0.00    +0.115 A 
ATOM     11  C   UNL     1     -35.520 150.582   6.741  1.00  0.00    +0.068 A 
BRANCH   3  12
ATOM     12  O   UNL     1     -40.970 147.986   4.767  1.00  0.00    -0.496 OA
ATOM     13  C   UNL     1     -41.114 147.052   5.839  1.00  0.00    +0.278 C 
ENDBRANCH   3  12
BRANCH   5  14
ATOM     14  C   UNL     1     -40.641 150.401   3.238  1.00  0.00    +0.252 C 
ATOM     15  N   UNL     1     -41.956 150.412   3.621  1.00  0.00    -0.365 N 
ATOM     16  O   UNL     1     -40.299 150.761   2.120  1.00  0.00    -0.269 OA
ATOM     17  H   UNL     1     -42.275 149.898   4.432  1.00  0.00    +0.159 HD
ATOM     18  H   UNL     1     -42.628 150.594   2.886  1.00  0.00    +0.159 HD
ENDBRANCH   5  14
ENDBRANCH   1   2
BRANCH   1  19
ATOM     19  C   UNL     1     -36.296 153.405   5.833  1.00  0.00    +0.129 A 
ATOM     20  C   UNL     1     -37.482 153.849   6.419  1.00  0.00    +0.049 A 
ATOM     21  C   UNL     1     -35.154 154.200   5.889  1.00  0.00    +0.069 A 
ATOM     22  C   UNL     1     -37.520 155.079   7.088  1.00  0.00    +0.031 A 
ATOM     23  C   UNL     1     -35.196 155.425   6.558  1.00  0.00    +0.068 A 
ATOM     24  C   UNL     1     -36.380 155.884   7.163  1.00  0.00    +0.061 A 
ATOM     25 Cl   UNL     1     -33.744 156.369   6.615  1.00  0.00    -0.082 Cl
BRANCH  24  26
ATOM     26  N   UNL     1     -36.358 157.131   7.830  1.00  0.00    -0.307 N 
ATOM     27  C   UNL     1     -36.671 158.373   7.321  1.00  0.00    +0.319 C 
ATOM     28  O   UNL     1     -36.965 158.626   6.159  1.00  0.00    -0.248 OA
ATOM     29  N   UNL     1     -36.594 159.345   8.307  1.00  0.00    -0.335 N 
ATOM     30  H   UNL     1     -35.928 157.120   8.747  1.00  0.00    +0.171 HD
ATOM     31  H   UNL     1     -36.705 159.027   9.259  1.00  0.00    +0.165 HD
BRANCH  29  32
ATOM     32  C   UNL     1     -36.918 160.712   8.036  1.00  0.00    +0.084 C 
ATOM     33  C   UNL     1     -38.063 161.383   8.743  1.00  0.00    +0.027 C 
ATOM     34  C   UNL     1     -36.651 161.780   9.062  1.00  0.00    +0.027 C 
ENDBRANCH  29  32
ENDBRANCH  24  26
ENDBRANCH   1  19
TORSDOF 6
ENDMDL
MODEL 10
REMARK VINA RESULT:    -7.947     10.524     13.356
REMARK INTER + INTRA:         -11.204
REMARK INTER:                  -9.967
REMARK INTRA:                  -1.237
REMARK UNBOUND:                -0.470
REMARK SMILES COc1cc2nccc(Oc3ccc(NC(=O)NC4CC4)c(Cl)c3)c2cc1C(N)=O
REMARK SMILES IDX 10 1 9 2 3 3 4 4 27 5 5 6 26 7 6 8 25 9 7 10 8 11 2 12 1 13
REMARK SMILES IDX 28 14 29 15 30 16 11 19 12 20 24 21 13 22 22 23 14 24 23 25
REMARK SMILES IDX 15 26 16 27 17 28 18 29 19 32 20 33 21 34
REMARK H PARENT 29 17 29 18 15 30 18 31
ROOT
ATOM      1  O   UNL     1     -37.406 148.596   4.483  1.00  0.00    -0.457 OA
ENDROOT
BRANCH   1   2
ATOM      2  C   UNL     1     -38.411 148.227   3.613  1.00  0.00    +0.138 A 
ATOM      3  C   UNL     1     -37.689 147.927  -0.518  1.00  0.00    +0.133 A 
ATOM      4  C   UNL     1     -38.941 147.632   0.032  1.00  0.00    +0.076 A 
ATOM      5  C   UNL     1     -36.650 148.362   0.304  1.00  0.00    +0.082 A 
ATOM      6  C   UNL     1     -39.177 147.722   1.395  1.00  0.00    +0.078 A 
ATOM      7  C   UNL     1     -36.867 148.459   1.683  1.00  0.00    +0.032 A 
ATOM      8  N   UNL     1     -40.397 147.408   1.865  1.00  0.00    -0.256 NA
ATOM      9  C   UNL     1     -38.126 148.141   2.238  1.00  0.00    +0.044 A 
ATOM     10  C   UNL     1     -40.616 147.482   3.195  1.00  0.00    +0.115 A 
ATOM     11  C   UNL     1     -39.662 147.875   4.108  1.00  0.00    +0.068 A 
BRANCH   3  12
ATOM     12  O   UNL     1     -37.546 147.891  -1.880  1.00  0.00    -0.496 OA
ATOM     13  C   UNL     1     -38.556 147.069  -2.468  1.00  0.00    +0.278 C 
ENDBRANCH   3  12
BRANCH   5  14
ATOM     14  C   UNL     1     -35.314 148.686  -0.248  1.00  0.00    +0.252 C 
ATOM     15  N   UNL     1     -35.258 149.764  -1.090  1.00  0.00    -0.365 N 
ATOM     16  O   UNL     1     -34.312 148.045   0.037  1.00  0.00    -0.269 OA
ATOM     17  H   UNL     1     -36.090 150.143  -1.521  1.00  0.00    +0.159 HD
ATOM     18  H   UNL     1     -34.376 149.904  -1.568  1.00  0.00    +0.159 HD
ENDBRANCH   5  14
ENDBRANCH   1   2
BRANCH   1  19
ATOM     19  C   UNL     1     -37.435 149.883   4.977  1.00  0.00    +0.129 A 
ATOM     20  C   UNL     1     -38.236 150.898   4.451  1.00  0.00    +0.049 A 
ATOM     21  C   UNL     1     -36.555 150.163   6.019  1.00  0.00    +0.069 A 
ATOM     22  C   UNL     1     -38.178 152.190   4.987  1.00  0.00    +0.031 A 
ATOM     23  C   UNL     1     -36.501 151.453   6.552  1.00  0.00    +0.068 A 
ATOM     24  C   UNL     1     -37.309 152.485   6.040  1.00  0.00    +0.061 A 
ATOM     25 Cl   UNL     1     -35.403 151.746   7.859  1.00  0.00    -0.082 Cl
BRANCH  24  26
ATOM     26  N   UNL     1     -37.212 153.769   6.626  1.00  0.00    -0.307 N 
ATOM     27  C   UNL     1     -36.400 154.817   6.248  1.00  0.00    +0.319 C 
ATOM     28  O   UNL     1     -35.554 154.794   5.363  1.00  0.00    -0.248 OA
ATOM     29  N   UNL     1     -36.644 155.937   7.027  1.00  0.00    -0.335 N 
ATOM     30  H   UNL     1     -37.697 153.877   7.508  1.00  0.00    +0.171 HD
ATOM     31  H   UNL     1     -37.556 155.993   7.457  1.00  0.00    +0.165 HD
BRANCH  29  32
ATOM     32  C   UNL     1     -35.955 157.171   6.799  1.00  0.00    +0.084 C 
ATOM     33  C   UNL     1     -36.524 158.204   5.866  1.00  0.00    +0.027 C 
ATOM     34  C   UNL     1     -36.500 158.463   7.345  1.00  0.00    +0.027 C 
ENDBRANCH  29  32
ENDBRANCH  24  26
ENDBRANCH   1  19
TORSDOF 6
ENDMDL
