MODEL 1
REMARK VINA RESULT:    -9.680      0.000      0.000
REMARK INTER + INTRA:         -13.230
REMARK INTER:                 -12.792
REMARK INTRA:                  -0.438
REMARK UNBOUND:                -0.438
REMARK SMILES Cc1ccc(Nc2nccc(N(C)c3ccc4c(C)n(C)nc4c3)n2)cc1S(N)(=O)=O
REMARK SMILES IDX 6 1 5 3 2 4 3 5 27 6 4 7 26 8 1 9 28 10 30 11 31 12 29 13
REMARK SMILES IDX 7 16 8 17 25 18 9 19 11 20 10 21 12 22 13 23 14 24 15 25
REMARK SMILES IDX 24 26 16 27 23 28 17 29 22 30 18 31 20 32 19 33 21 34
REMARK H PARENT 6 2 29 14 29 15
ROOT
ATOM      1  N   UNL     1      -6.490   3.922 -17.711  1.00  0.00    -0.324 N 
ATOM      2  H   UNL     1      -5.837   3.945 -18.482  1.00  0.00    +0.170 HD
ENDROOT
BRANCH   1   3
ATOM      3  C   UNL     1      -6.197   3.066 -16.646  1.00  0.00    +0.042 A 
ATOM      4  C   UNL     1      -5.597   1.212 -14.558  1.00  0.00    -0.031 A 
ATOM      5  C   UNL     1      -5.612   2.595 -14.326  1.00  0.00    +0.007 A 
ATOM      6  C   UNL     1      -5.877   0.765 -15.860  1.00  0.00    +0.087 A 
ATOM      7  C   UNL     1      -5.909   3.501 -15.352  1.00  0.00    +0.026 A 
ATOM      8  C   UNL     1      -6.169   1.685 -16.884  1.00  0.00    +0.048 A 
ATOM      9  C   UNL     1      -5.250   0.299 -13.418  1.00  0.00    +0.046 C 
BRANCH   6  10
ATOM     10  S   UNL     1      -5.850  -0.958 -16.294  1.00  0.00    +0.238 S 
ATOM     11  O   UNL     1      -7.070  -1.593 -15.860  1.00  0.00    -0.207 OA
ATOM     12  O   UNL     1      -4.552  -1.512 -15.984  1.00  0.00    -0.207 OA
BRANCH  10  13
ATOM     13  N   UNL     1      -5.911  -0.906 -17.972  1.00  0.00    -0.225 NA
ATOM     14  H   UNL     1      -6.138  -1.830 -18.339  1.00  0.00    +0.137 HD
ATOM     15  H   UNL     1      -5.037  -0.521 -18.334  1.00  0.00    +0.137 HD
ENDBRANCH  10  13
ENDBRANCH   6  10
ENDBRANCH   1   3
BRANCH   1  16
ATOM     16  C   UNL     1      -7.567   4.742 -18.032  1.00  0.00    +0.229 A 
ATOM     17  N   UNL     1      -7.597   5.480 -19.148  1.00  0.00    -0.221 NA
ATOM     18  N   UNL     1      -8.563   4.731 -17.133  1.00  0.00    -0.195 NA
ATOM     19  C   UNL     1      -8.678   6.250 -19.343  1.00  0.00    +0.119 A 
ATOM     20  C   UNL     1      -9.648   5.499 -17.352  1.00  0.00    +0.138 A 
ATOM     21  C   UNL     1      -9.737   6.299 -18.473  1.00  0.00    +0.067 A 
BRANCH  20  22
ATOM     22  N   UNL     1     -10.708   5.507 -16.398  1.00  0.00    -0.329 N 
ATOM     23  C   UNL     1     -11.927   6.085 -16.974  1.00  0.00    +0.152 C 
BRANCH  22  24
ATOM     24  C   UNL     1     -10.871   4.473 -15.419  1.00  0.00    +0.044 A 
ATOM     25  C   UNL     1      -9.890   3.429 -15.230  1.00  0.00    +0.027 A 
ATOM     26  C   UNL     1     -12.070   4.475 -14.647  1.00  0.00    +0.057 A 
ATOM     27  C   UNL     1      -9.991   2.364 -14.303  1.00  0.00    +0.014 A 
ATOM     28  C   UNL     1     -12.201   3.431 -13.717  1.00  0.00    +0.095 A 
ATOM     29  C   UNL     1     -11.175   2.433 -13.582  1.00  0.00    +0.023 A 
ATOM     30  N   UNL     1     -13.195   3.162 -12.856  1.00  0.00    -0.173 NA
ATOM     31  C   UNL     1     -11.583   1.554 -12.606  1.00  0.00    +0.043 A 
ATOM     32  N   UNL     1     -12.798   2.053 -12.200  1.00  0.00    -0.272 N 
ATOM     33  C   UNL     1     -10.971   0.335 -12.026  1.00  0.00    +0.067 C 
ATOM     34  C   UNL     1     -13.661   1.505 -11.178  1.00  0.00    +0.174 C 
ENDBRANCH  22  24
ENDBRANCH  20  22
ENDBRANCH   1  16
TORSDOF 6
ENDMDL
MODEL 2
REMARK VINA RESULT:    -9.512      3.996      7.900
REMARK INTER + INTRA:         -13.008
REMARK INTER:                 -12.801
REMARK INTRA:                  -0.208
REMARK UNBOUND:                -0.438
REMARK SMILES Cc1ccc(Nc2nccc(N(C)c3ccc4c(C)n(C)nc4c3)n2)cc1S(N)(=O)=O
REMARK SMILES IDX 6 1 5 3 2 4 3 5 27 6 4 7 26 8 1 9 28 10 30 11 31 12 29 13
REMARK SMILES IDX 7 16 8 17 25 18 9 19 11 20 10 21 12 22 13 23 14 24 15 25
REMARK SMILES IDX 24 26 16 27 23 28 17 29 22 30 18 31 20 32 19 33 21 34
REMARK H PARENT 6 2 29 14 29 15
ROOT
ATOM      1  N   UNL     1     -10.201   1.040 -12.728  1.00  0.00    -0.324 N 
ATOM      2  H   UNL     1      -9.582   0.254 -12.585  1.00  0.00    +0.170 HD
ENDROOT
BRANCH   1   3
ATOM      3  C   UNL     1     -11.390   1.066 -11.996  1.00  0.00    +0.042 A 
ATOM      4  C   UNL     1     -13.764   1.033 -10.408  1.00  0.00    -0.031 A 
ATOM      5  C   UNL     1     -13.627   1.902 -11.499  1.00  0.00    +0.007 A 
ATOM      6  C   UNL     1     -12.686   0.183 -10.111  1.00  0.00    +0.087 A 
ATOM      7  C   UNL     1     -12.462   1.913 -12.278  1.00  0.00    +0.026 A 
ATOM      8  C   UNL     1     -11.519   0.207 -10.895  1.00  0.00    +0.048 A 
ATOM      9  C   UNL     1     -15.031   1.087  -9.604  1.00  0.00    +0.046 C 
BRANCH   6  10
ATOM     10  S   UNL     1     -12.717  -0.935  -8.729  1.00  0.00    +0.238 S 
ATOM     11  O   UNL     1     -13.694  -1.971  -8.958  1.00  0.00    -0.207 OA
ATOM     12  O   UNL     1     -12.684  -0.180  -7.497  1.00  0.00    -0.207 OA
BRANCH  10  13
ATOM     13  N   UNL     1     -11.210  -1.671  -8.829  1.00  0.00    -0.225 NA
ATOM     14  H   UNL     1     -11.178  -2.478  -8.207  1.00  0.00    +0.137 HD
ATOM     15  H   UNL     1     -10.480  -0.980  -8.650  1.00  0.00    +0.137 HD
ENDBRANCH  10  13
ENDBRANCH   6  10
ENDBRANCH   1   3
BRANCH   1  16
ATOM     16  C   UNL     1      -9.659   1.839 -13.731  1.00  0.00    +0.229 A 
ATOM     17  N   UNL     1      -8.385   1.724 -14.127  1.00  0.00    -0.221 NA
ATOM     18  N   UNL     1     -10.515   2.726 -14.260  1.00  0.00    -0.195 NA
ATOM     19  C   UNL     1      -7.967   2.562 -15.087  1.00  0.00    +0.119 A 
ATOM     20  C   UNL     1     -10.081   3.550 -15.234  1.00  0.00    +0.138 A 
ATOM     21  C   UNL     1      -8.775   3.499 -15.678  1.00  0.00    +0.067 A 
BRANCH  20  22
ATOM     22  N   UNL     1     -10.977   4.508 -15.796  1.00  0.00    -0.329 N 
ATOM     23  C   UNL     1     -12.020   4.877 -14.834  1.00  0.00    +0.152 C 
BRANCH  22  24
ATOM     24  C   UNL     1     -10.545   5.517 -16.716  1.00  0.00    +0.044 A 
ATOM     25  C   UNL     1     -10.031   6.793 -16.275  1.00  0.00    +0.027 A 
ATOM     26  C   UNL     1     -10.676   5.242 -18.110  1.00  0.00    +0.057 A 
ATOM     27  C   UNL     1      -9.609   7.846 -17.123  1.00  0.00    +0.014 A 
ATOM     28  C   UNL     1     -10.265   6.267 -18.978  1.00  0.00    +0.095 A 
ATOM     29  C   UNL     1      -9.756   7.508 -18.461  1.00  0.00    +0.023 A 
ATOM     30  N   UNL     1     -10.262   6.312 -20.319  1.00  0.00    -0.173 NA
ATOM     31  C   UNL     1      -9.441   8.303 -19.538  1.00  0.00    +0.043 A 
ATOM     32  N   UNL     1      -9.757   7.524 -20.626  1.00  0.00    -0.272 N 
ATOM     33  C   UNL     1      -8.887   9.673 -19.654  1.00  0.00    +0.067 C 
ATOM     34  C   UNL     1      -9.611   7.882 -22.018  1.00  0.00    +0.174 C 
ENDBRANCH  22  24
ENDBRANCH  20  22
ENDBRANCH   1  16
TORSDOF 6
ENDMDL
MODEL 3
REMARK VINA RESULT:    -9.417      2.183      3.058
REMARK INTER + INTRA:         -12.882
REMARK INTER:                 -12.204
REMARK INTRA:                  -0.678
REMARK UNBOUND:                -0.438
REMARK SMILES Cc1ccc(Nc2nccc(N(C)c3ccc4c(C)n(C)nc4c3)n2)cc1S(N)(=O)=O
REMARK SMILES IDX 6 1 5 3 2 4 3 5 27 6 4 7 26 8 1 9 28 10 30 11 31 12 29 13
REMARK SMILES IDX 7 16 8 17 25 18 9 19 11 20 10 21 12 22 13 23 14 24 15 25
REMARK SMILES IDX 24 26 16 27 23 28 17 29 22 30 18 31 20 32 19 33 21 34
REMARK H PARENT 6 2 29 14 29 15
ROOT
ATOM      1  N   UNL     1      -7.733   0.844 -17.163  1.00  0.00    -0.324 N 
ATOM      2  H   UNL     1      -8.500   0.439 -17.680  1.00  0.00    +0.170 HD
ENDROOT
BRANCH   1   3
ATOM      3  C   UNL     1      -6.901  -0.028 -16.456  1.00  0.00    +0.042 A 
ATOM      4  C   UNL     1      -5.286  -1.801 -14.904  1.00  0.00    -0.031 A 
ATOM      5  C   UNL     1      -5.038  -1.591 -16.268  1.00  0.00    +0.007 A 
ATOM      6  C   UNL     1      -6.367  -1.117 -14.324  1.00  0.00    +0.087 A 
ATOM      7  C   UNL     1      -5.831  -0.719 -17.025  1.00  0.00    +0.026 A 
ATOM      8  C   UNL     1      -7.160  -0.248 -15.096  1.00  0.00    +0.048 A 
ATOM      9  C   UNL     1      -4.410  -2.764 -14.156  1.00  0.00    +0.046 C 
BRANCH   6  10
ATOM     10  S   UNL     1      -6.813  -1.327 -12.617  1.00  0.00    +0.238 S 
ATOM     11  O   UNL     1      -5.775  -0.793 -11.769  1.00  0.00    -0.207 OA
ATOM     12  O   UNL     1      -7.349  -2.654 -12.418  1.00  0.00    -0.207 OA
BRANCH  10  13
ATOM     13  N   UNL     1      -8.132  -0.298 -12.460  1.00  0.00    -0.225 NA
ATOM     14  H   UNL     1      -8.119   0.397 -13.206  1.00  0.00    +0.137 HD
ATOM     15  H   UNL     1      -8.143   0.102 -11.521  1.00  0.00    +0.137 HD
ENDBRANCH  10  13
ENDBRANCH   6  10
ENDBRANCH   1   3
BRANCH   1  16
ATOM     16  C   UNL     1      -7.819   2.229 -17.274  1.00  0.00    +0.229 A 
ATOM     17  N   UNL     1      -6.936   2.946 -17.979  1.00  0.00    -0.221 NA
ATOM     18  N   UNL     1      -8.854   2.776 -16.619  1.00  0.00    -0.195 NA
ATOM     19  C   UNL     1      -7.107   4.277 -17.998  1.00  0.00    +0.119 A 
ATOM     20  C   UNL     1      -9.019   4.113 -16.661  1.00  0.00    +0.138 A 
ATOM     21  C   UNL     1      -8.135   4.916 -17.354  1.00  0.00    +0.067 A 
BRANCH  20  22
ATOM     22  N   UNL     1     -10.107   4.710 -15.958  1.00  0.00    -0.329 N 
ATOM     23  C   UNL     1     -10.849   5.631 -16.826  1.00  0.00    +0.152 C 
BRANCH  22  24
ATOM     24  C   UNL     1     -10.851   4.010 -14.954  1.00  0.00    +0.044 A 
ATOM     25  C   UNL     1     -12.215   4.356 -14.624  1.00  0.00    +0.027 A 
ATOM     26  C   UNL     1     -10.186   2.968 -14.243  1.00  0.00    +0.057 A 
ATOM     27  C   UNL     1     -13.004   3.728 -13.631  1.00  0.00    +0.014 A 
ATOM     28  C   UNL     1     -10.942   2.325 -13.249  1.00  0.00    +0.095 A 
ATOM     29  C   UNL     1     -12.299   2.721 -12.986  1.00  0.00    +0.023 A 
ATOM     30  N   UNL     1     -10.607   1.322 -12.422  1.00  0.00    -0.173 NA
ATOM     31  C   UNL     1     -12.772   1.920 -11.973  1.00  0.00    +0.043 A 
ATOM     32  N   UNL     1     -11.712   1.092 -11.686  1.00  0.00    -0.272 N 
ATOM     33  C   UNL     1     -14.075   1.845 -11.270  1.00  0.00    +0.067 C 
ATOM     34  C   UNL     1     -11.678   0.044 -10.691  1.00  0.00    +0.174 C 
ENDBRANCH  22  24
ENDBRANCH  20  22
ENDBRANCH   1  16
TORSDOF 6
ENDMDL
MODEL 4
REMARK VINA RESULT:    -9.313      2.516      5.955
REMARK INTER + INTRA:         -12.744
REMARK INTER:                 -12.031
REMARK INTRA:                  -0.714
REMARK UNBOUND:                -0.438
REMARK SMILES Cc1ccc(Nc2nccc(N(C)c3ccc4c(C)n(C)nc4c3)n2)cc1S(N)(=O)=O
REMARK SMILES IDX 6 1 5 3 2 4 3 5 27 6 4 7 26 8 1 9 28 10 30 11 31 12 29 13
REMARK SMILES IDX 7 16 8 17 25 18 9 19 11 20 10 21 12 22 13 23 14 24 15 25
REMARK SMILES IDX 24 26 16 27 23 28 17 29 22 30 18 31 20 32 19 33 21 34
REMARK H PARENT 6 2 29 14 29 15
ROOT
ATOM      1  N   UNL     1      -6.763   2.315 -15.735  1.00  0.00    -0.324 N 
ATOM      2  H   UNL     1      -6.445   3.140 -16.223  1.00  0.00    +0.170 HD
ENDROOT
BRANCH   1   3
ATOM      3  C   UNL     1      -6.065   1.125 -15.958  1.00  0.00    +0.042 A 
ATOM      4  C   UNL     1      -4.612  -1.313 -16.278  1.00  0.00    -0.031 A 
ATOM      5  C   UNL     1      -5.320  -0.738 -17.343  1.00  0.00    +0.007 A 
ATOM      6  C   UNL     1      -4.649  -0.654 -15.039  1.00  0.00    +0.087 A 
ATOM      7  C   UNL     1      -6.030   0.459 -17.183  1.00  0.00    +0.026 A 
ATOM      8  C   UNL     1      -5.370   0.545 -14.888  1.00  0.00    +0.048 A 
ATOM      9  C   UNL     1      -3.890  -2.608 -16.514  1.00  0.00    +0.046 C 
BRANCH   6  10
ATOM     10  S   UNL     1      -3.829  -1.299 -13.601  1.00  0.00    +0.238 S 
ATOM     11  O   UNL     1      -2.409  -1.387 -13.843  1.00  0.00    -0.207 OA
ATOM     12  O   UNL     1      -4.581  -2.416 -13.077  1.00  0.00    -0.207 OA
BRANCH  10  13
ATOM     13  N   UNL     1      -4.045  -0.066 -12.480  1.00  0.00    -0.225 NA
ATOM     14  H   UNL     1      -4.007   0.839 -12.949  1.00  0.00    +0.137 HD
ATOM     15  H   UNL     1      -3.367  -0.169 -11.724  1.00  0.00    +0.137 HD
ENDBRANCH  10  13
ENDBRANCH   6  10
ENDBRANCH   1   3
BRANCH   1  16
ATOM     16  C   UNL     1      -7.912   2.649 -15.024  1.00  0.00    +0.229 A 
ATOM     17  N   UNL     1      -8.125   2.230 -13.771  1.00  0.00    -0.221 NA
ATOM     18  N   UNL     1      -8.780   3.420 -15.698  1.00  0.00    -0.195 NA
ATOM     19  C   UNL     1      -9.278   2.597 -13.191  1.00  0.00    +0.119 A 
ATOM     20  C   UNL     1      -9.926   3.791 -15.096  1.00  0.00    +0.138 A 
ATOM     21  C   UNL     1     -10.219   3.380 -13.810  1.00  0.00    +0.067 A 
BRANCH  20  22
ATOM     22  N   UNL     1     -10.864   4.598 -15.805  1.00  0.00    -0.329 N 
ATOM     23  C   UNL     1     -12.038   4.888 -14.975  1.00  0.00    +0.152 C 
BRANCH  22  24
ATOM     24  C   UNL     1     -10.460   5.601 -16.745  1.00  0.00    +0.044 A 
ATOM     25  C   UNL     1      -9.956   6.889 -16.329  1.00  0.00    +0.027 A 
ATOM     26  C   UNL     1     -10.610   5.306 -18.133  1.00  0.00    +0.057 A 
ATOM     27  C   UNL     1      -9.560   7.936 -17.197  1.00  0.00    +0.014 A 
ATOM     28  C   UNL     1     -10.226   6.325 -19.020  1.00  0.00    +0.095 A 
ATOM     29  C   UNL     1      -9.725   7.579 -18.528  1.00  0.00    +0.023 A 
ATOM     30  N   UNL     1     -10.246   6.352 -20.362  1.00  0.00    -0.173 NA
ATOM     31  C   UNL     1      -9.438   8.363 -19.620  1.00  0.00    +0.043 A 
ATOM     32  N   UNL     1      -9.761   7.566 -20.693  1.00  0.00    -0.272 N 
ATOM     33  C   UNL     1      -8.903   9.739 -19.763  1.00  0.00    +0.067 C 
ATOM     34  C   UNL     1      -9.642   7.908 -22.092  1.00  0.00    +0.174 C 
ENDBRANCH  22  24
ENDBRANCH  20  22
ENDBRANCH   1  16
TORSDOF 6
ENDMDL
MODEL 5
REMARK VINA RESULT:    -9.283      2.758      5.949
REMARK INTER + INTRA:         -12.706
REMARK INTER:                 -12.052
REMARK INTRA:                  -0.654
REMARK UNBOUND:                -0.438
REMARK SMILES Cc1ccc(Nc2nccc(N(C)c3ccc4c(C)n(C)nc4c3)n2)cc1S(N)(=O)=O
REMARK SMILES IDX 6 1 5 3 2 4 3 5 27 6 4 7 26 8 1 9 28 10 30 11 31 12 29 13
REMARK SMILES IDX 7 16 8 17 25 18 9 19 11 20 10 21 12 22 13 23 14 24 15 25
REMARK SMILES IDX 24 26 16 27 23 28 17 29 22 30 18 31 20 32 19 33 21 34
REMARK H PARENT 6 2 29 14 29 15
ROOT
ATOM      1  N   UNL     1      -7.448   1.365 -16.493  1.00  0.00    -0.324 N 
ATOM      2  H   UNL     1      -7.656   1.742 -17.406  1.00  0.00    +0.170 HD
ENDROOT
BRANCH   1   3
ATOM      3  C   UNL     1      -6.538   0.306 -16.426  1.00  0.00    +0.042 A 
ATOM      4  C   UNL     1      -4.580  -1.771 -16.328  1.00  0.00    -0.031 A 
ATOM      5  C   UNL     1      -5.886  -1.975 -15.860  1.00  0.00    +0.007 A 
ATOM      6  C   UNL     1      -4.260  -0.502 -16.838  1.00  0.00    +0.087 A 
ATOM      7  C   UNL     1      -6.844  -0.955 -15.912  1.00  0.00    +0.026 A 
ATOM      8  C   UNL     1      -5.229   0.517 -16.879  1.00  0.00    +0.048 A 
ATOM      9  C   UNL     1      -3.597  -2.901 -16.224  1.00  0.00    +0.046 C 
BRANCH   6  10
ATOM     10  S   UNL     1      -2.630  -0.102 -17.422  1.00  0.00    +0.238 S 
ATOM     11  O   UNL     1      -2.286  -0.951 -18.537  1.00  0.00    -0.207 OA
ATOM     12  O   UNL     1      -1.742   0.070 -16.296  1.00  0.00    -0.207 OA
BRANCH  10  13
ATOM     13  N   UNL     1      -2.842   1.443 -18.049  1.00  0.00    -0.225 NA
ATOM     14  H   UNL     1      -3.837   1.635 -18.167  1.00  0.00    +0.137 HD
ATOM     15  H   UNL     1      -2.296   1.542 -18.905  1.00  0.00    +0.137 HD
ENDBRANCH  10  13
ENDBRANCH   6  10
ENDBRANCH   1   3
BRANCH   1  16
ATOM     16  C   UNL     1      -8.251   2.017 -15.562  1.00  0.00    +0.229 A 
ATOM     17  N   UNL     1      -8.170   1.768 -14.249  1.00  0.00    -0.221 NA
ATOM     18  N   UNL     1      -9.105   2.907 -16.089  1.00  0.00    -0.195 NA
ATOM     19  C   UNL     1      -9.009   2.442 -13.447  1.00  0.00    +0.119 A 
ATOM     20  C   UNL     1      -9.929   3.585 -15.268  1.00  0.00    +0.138 A 
ATOM     21  C   UNL     1      -9.913   3.366 -13.905  1.00  0.00    +0.067 A 
BRANCH  20  22
ATOM     22  N   UNL     1     -10.852   4.525 -15.816  1.00  0.00    -0.329 N 
ATOM     23  C   UNL     1     -11.883   4.879 -14.835  1.00  0.00    +0.152 C 
BRANCH  22  24
ATOM     24  C   UNL     1     -10.457   5.537 -16.749  1.00  0.00    +0.044 A 
ATOM     25  C   UNL     1      -9.981   6.834 -16.323  1.00  0.00    +0.027 A 
ATOM     26  C   UNL     1     -10.586   5.245 -18.139  1.00  0.00    +0.057 A 
ATOM     27  C   UNL     1      -9.595   7.890 -17.183  1.00  0.00    +0.014 A 
ATOM     28  C   UNL     1     -10.211   6.273 -19.019  1.00  0.00    +0.095 A 
ATOM     29  C   UNL     1      -9.738   7.535 -18.517  1.00  0.00    +0.023 A 
ATOM     30  N   UNL     1     -10.216   6.306 -20.361  1.00  0.00    -0.173 NA
ATOM     31  C   UNL     1      -9.453   8.328 -19.603  1.00  0.00    +0.043 A 
ATOM     32  N   UNL     1      -9.750   7.529 -20.683  1.00  0.00    -0.272 N 
ATOM     33  C   UNL     1      -8.943   9.714 -19.735  1.00  0.00    +0.067 C 
ATOM     34  C   UNL     1      -9.622   7.878 -22.079  1.00  0.00    +0.174 C 
ENDBRANCH  22  24
ENDBRANCH  20  22
ENDBRANCH   1  16
TORSDOF 6
ENDMDL
MODEL 6
REMARK VINA RESULT:    -9.205      1.357      1.880
REMARK INTER + INTRA:         -12.602
REMARK INTER:                 -12.378
REMARK INTRA:                  -0.224
REMARK UNBOUND:                -0.438
REMARK SMILES Cc1ccc(Nc2nccc(N(C)c3ccc4c(C)n(C)nc4c3)n2)cc1S(N)(=O)=O
REMARK SMILES IDX 6 1 5 3 2 4 3 5 27 6 4 7 26 8 1 9 28 10 30 11 31 12 29 13
REMARK SMILES IDX 7 16 8 17 25 18 9 19 11 20 10 21 12 22 13 23 14 24 15 25
REMARK SMILES IDX 24 26 16 27 23 28 17 29 22 30 18 31 20 32 19 33 21 34
REMARK H PARENT 6 2 29 14 29 15
ROOT
ATOM      1  N   UNL     1      -7.879   3.187 -17.093  1.00  0.00    -0.324 N 
ATOM      2  H   UNL     1      -7.699   2.923 -18.051  1.00  0.00    +0.170 HD
ENDROOT
BRANCH   1   3
ATOM      3  C   UNL     1      -7.517   2.276 -16.096  1.00  0.00    +0.042 A 
ATOM      4  C   UNL     1      -6.717   0.339 -14.156  1.00  0.00    -0.031 A 
ATOM      5  C   UNL     1      -7.292   1.560 -13.776  1.00  0.00    +0.007 A 
ATOM      6  C   UNL     1      -6.535   0.102 -15.529  1.00  0.00    +0.087 A 
ATOM      7  C   UNL     1      -7.686   2.506 -14.730  1.00  0.00    +0.026 A 
ATOM      8  C   UNL     1      -6.928   1.063 -16.478  1.00  0.00    +0.048 A 
ATOM      9  C   UNL     1      -6.300  -0.622 -13.080  1.00  0.00    +0.046 C 
BRANCH   6  10
ATOM     10  S   UNL     1      -5.779  -1.386 -16.139  1.00  0.00    +0.238 S 
ATOM     11  O   UNL     1      -6.685  -2.498 -15.980  1.00  0.00    -0.207 OA
ATOM     12  O   UNL     1      -4.408  -1.452 -15.687  1.00  0.00    -0.207 OA
BRANCH  10  13
ATOM     13  N   UNL     1      -5.678  -1.087 -17.789  1.00  0.00    -0.225 NA
ATOM     14  H   UNL     1      -4.710  -1.171 -18.097  1.00  0.00    +0.137 HD
ATOM     15  H   UNL     1      -6.103  -0.183 -17.999  1.00  0.00    +0.137 HD
ENDBRANCH  10  13
ENDBRANCH   6  10
ENDBRANCH   1   3
BRANCH   1  16
ATOM     16  C   UNL     1      -8.542   4.410 -17.097  1.00  0.00    +0.229 A 
ATOM     17  N   UNL     1      -7.998   5.516 -17.618  1.00  0.00    -0.221 NA
ATOM     18  N   UNL     1      -9.762   4.384 -16.539  1.00  0.00    -0.195 NA
ATOM     19  C   UNL     1      -8.722   6.644 -17.548  1.00  0.00    +0.119 A 
ATOM     20  C   UNL     1     -10.481   5.523 -16.490  1.00  0.00    +0.138 A 
ATOM     21  C   UNL     1      -9.974   6.705 -16.992  1.00  0.00    +0.067 A 
BRANCH  20  22
ATOM     22  N   UNL     1     -11.774   5.513 -15.887  1.00  0.00    -0.329 N 
ATOM     23  C   UNL     1     -12.805   5.903 -16.854  1.00  0.00    +0.152 C 
BRANCH  22  24
ATOM     24  C   UNL     1     -12.144   4.569 -14.876  1.00  0.00    +0.044 A 
ATOM     25  C   UNL     1     -13.471   4.531 -14.305  1.00  0.00    +0.027 A 
ATOM     26  C   UNL     1     -11.138   3.674 -14.405  1.00  0.00    +0.057 A 
ATOM     27  C   UNL     1     -13.904   3.646 -13.289  1.00  0.00    +0.014 A 
ATOM     28  C   UNL     1     -11.536   2.781 -13.396  1.00  0.00    +0.095 A 
ATOM     29  C   UNL     1     -12.879   2.800 -12.885  1.00  0.00    +0.023 A 
ATOM     30  N   UNL     1     -10.834   1.832 -12.758  1.00  0.00    -0.173 NA
ATOM     31  C   UNL     1     -12.966   1.826 -11.919  1.00  0.00    +0.043 A 
ATOM     32  N   UNL     1     -11.707   1.271 -11.897  1.00  0.00    -0.272 N 
ATOM     33  C   UNL     1     -14.070   1.368 -11.042  1.00  0.00    +0.067 C 
ATOM     34  C   UNL     1     -11.253   0.188 -11.056  1.00  0.00    +0.174 C 
ENDBRANCH  22  24
ENDBRANCH  20  22
ENDBRANCH   1  16
TORSDOF 6
ENDMDL
MODEL 7
REMARK VINA RESULT:    -9.196      4.110      8.291
REMARK INTER + INTRA:         -12.590
REMARK INTER:                 -12.208
REMARK INTRA:                  -0.382
REMARK UNBOUND:                -0.438
REMARK SMILES Cc1ccc(Nc2nccc(N(C)c3ccc4c(C)n(C)nc4c3)n2)cc1S(N)(=O)=O
REMARK SMILES IDX 6 1 5 3 2 4 3 5 27 6 4 7 26 8 1 9 28 10 30 11 31 12 29 13
REMARK SMILES IDX 7 16 8 17 25 18 9 19 11 20 10 21 12 22 13 23 14 24 15 25
REMARK SMILES IDX 24 26 16 27 23 28 17 29 22 30 18 31 20 32 19 33 21 34
REMARK H PARENT 6 2 29 14 29 15
ROOT
ATOM      1  N   UNL     1     -12.028   1.561 -12.510  1.00  0.00    -0.324 N 
ATOM      2  H   UNL     1     -11.392   0.889 -12.917  1.00  0.00    +0.170 HD
ENDROOT
BRANCH   1   3
ATOM      3  C   UNL     1     -12.683   1.195 -11.331  1.00  0.00    +0.042 A 
ATOM      4  C   UNL     1     -13.901   0.406  -8.871  1.00  0.00    -0.031 A 
ATOM      5  C   UNL     1     -14.620   1.103  -9.852  1.00  0.00    +0.007 A 
ATOM      6  C   UNL     1     -12.552   0.115  -9.133  1.00  0.00    +0.087 A 
ATOM      7  C   UNL     1     -14.020   1.486 -11.059  1.00  0.00    +0.026 A 
ATOM      8  C   UNL     1     -11.958   0.511 -10.346  1.00  0.00    +0.048 A 
ATOM      9  C   UNL     1     -14.600   0.043  -7.593  1.00  0.00    +0.046 C 
BRANCH   6  10
ATOM     10  S   UNL     1     -11.521  -0.726  -7.956  1.00  0.00    +0.238 S 
ATOM     11  O   UNL     1     -11.945  -2.098  -7.823  1.00  0.00    -0.207 OA
ATOM     12  O   UNL     1     -11.314   0.121  -6.803  1.00  0.00    -0.207 OA
BRANCH  10  13
ATOM     13  N   UNL     1     -10.035  -0.761  -8.740  1.00  0.00    -0.225 NA
ATOM     14  H   UNL     1      -9.768  -1.726  -8.932  1.00  0.00    +0.137 HD
ATOM     15  H   UNL     1      -9.347  -0.242  -8.192  1.00  0.00    +0.137 HD
ENDBRANCH  10  13
ENDBRANCH   6  10
ENDBRANCH   1   3
BRANCH   1  16
ATOM     16  C   UNL     1     -12.099   2.659 -13.361  1.00  0.00    +0.229 A 
ATOM     17  N   UNL     1     -13.193   3.426 -13.449  1.00  0.00    -0.221 NA
ATOM     18  N   UNL     1     -10.988   2.881 -14.080  1.00  0.00    -0.195 NA
ATOM     19  C   UNL     1     -13.155   4.446 -14.320  1.00  0.00    +0.119 A 
ATOM     20  C   UNL     1     -10.962   3.919 -14.938  1.00  0.00    +0.138 A 
ATOM     21  C   UNL     1     -12.062   4.740 -15.093  1.00  0.00    +0.067 A 
BRANCH  20  22
ATOM     22  N   UNL     1      -9.792   4.158 -15.718  1.00  0.00    -0.329 N 
ATOM     23  C   UNL     1      -9.139   2.896 -16.083  1.00  0.00    +0.152 C 
BRANCH  22  24
ATOM     24  C   UNL     1      -9.698   5.240 -16.651  1.00  0.00    +0.044 A 
ATOM     25  C   UNL     1      -9.464   6.603 -16.230  1.00  0.00    +0.027 A 
ATOM     26  C   UNL     1      -9.887   4.942 -18.033  1.00  0.00    +0.057 A 
ATOM     27  C   UNL     1      -9.382   7.725 -17.089  1.00  0.00    +0.014 A 
ATOM     28  C   UNL     1      -9.812   6.035 -18.912  1.00  0.00    +0.095 A 
ATOM     29  C   UNL     1      -9.567   7.362 -18.416  1.00  0.00    +0.023 A 
ATOM     30  N   UNL     1      -9.942   6.079 -20.247  1.00  0.00    -0.173 NA
ATOM     31  C   UNL     1      -9.549   8.209 -19.499  1.00  0.00    +0.043 A 
ATOM     32  N   UNL     1      -9.769   7.377 -20.572  1.00  0.00    -0.272 N 
ATOM     33  C   UNL     1      -9.349   9.671 -19.634  1.00  0.00    +0.067 C 
ATOM     34  C   UNL     1      -9.840   7.759 -21.963  1.00  0.00    +0.174 C 
ENDBRANCH  22  24
ENDBRANCH  20  22
ENDBRANCH   1  16
TORSDOF 6
ENDMDL
MODEL 8
REMARK VINA RESULT:    -9.019      2.850      4.868
REMARK INTER + INTRA:         -12.357
REMARK INTER:                 -11.287
REMARK INTRA:                  -1.069
REMARK UNBOUND:                -0.438
REMARK SMILES Cc1ccc(Nc2nccc(N(C)c3ccc4c(C)n(C)nc4c3)n2)cc1S(N)(=O)=O
REMARK SMILES IDX 6 1 5 3 2 4 3 5 27 6 4 7 26 8 1 9 28 10 30 11 31 12 29 13
REMARK SMILES IDX 7 16 8 17 25 18 9 19 11 20 10 21 12 22 13 23 14 24 15 25
REMARK SMILES IDX 24 26 16 27 23 28 17 29 22 30 18 31 20 32 19 33 21 34
REMARK H PARENT 6 2 29 14 29 15
ROOT
ATOM      1  N   UNL     1      -5.612   0.033 -13.741  1.00  0.00    -0.324 N 
ATOM      2  H   UNL     1      -4.629   0.209 -13.585  1.00  0.00    +0.170 HD
ENDROOT
BRANCH   1   3
ATOM      3  C   UNL     1      -6.323  -0.602 -12.720  1.00  0.00    +0.042 A 
ATOM      4  C   UNL     1      -7.889  -1.887 -10.707  1.00  0.00    -0.031 A 
ATOM      5  C   UNL     1      -6.491  -1.827 -10.618  1.00  0.00    +0.007 A 
ATOM      6  C   UNL     1      -8.498  -1.302 -11.829  1.00  0.00    +0.087 A 
ATOM      7  C   UNL     1      -5.727  -1.194 -11.606  1.00  0.00    +0.026 A 
ATOM      8  C   UNL     1      -7.719  -0.674 -12.818  1.00  0.00    +0.048 A 
ATOM      9  C   UNL     1      -8.646  -2.599  -9.623  1.00  0.00    +0.046 C 
BRANCH   6  10
ATOM     10  S   UNL     1     -10.256  -1.346 -12.081  1.00  0.00    +0.238 S 
ATOM     11  O   UNL     1     -10.907  -0.436 -11.170  1.00  0.00    -0.207 OA
ATOM     12  O   UNL     1     -10.689  -2.718 -12.225  1.00  0.00    -0.207 OA
BRANCH  10  13
ATOM     13  N   UNL     1     -10.416  -0.678 -13.615  1.00  0.00    -0.225 NA
ATOM     14  H   UNL     1      -9.755  -1.118 -14.255  1.00  0.00    +0.137 HD
ATOM     15  H   UNL     1     -10.323   0.337 -13.557  1.00  0.00    +0.137 HD
ENDBRANCH  10  13
ENDBRANCH   6  10
ENDBRANCH   1   3
BRANCH   1  16
ATOM     16  C   UNL     1      -5.923   0.438 -15.036  1.00  0.00    +0.229 A 
ATOM     17  N   UNL     1      -5.571  -0.276 -16.112  1.00  0.00    -0.221 NA
ATOM     18  N   UNL     1      -6.599   1.595 -15.111  1.00  0.00    -0.195 NA
ATOM     19  C   UNL     1      -5.907   0.222 -17.312  1.00  0.00    +0.119 A 
ATOM     20  C   UNL     1      -6.940   2.073 -16.323  1.00  0.00    +0.138 A 
ATOM     21  C   UNL     1      -6.593   1.398 -17.477  1.00  0.00    +0.067 A 
BRANCH  20  22
ATOM     22  N   UNL     1      -7.646   3.309 -16.419  1.00  0.00    -0.329 N 
ATOM     23  C   UNL     1      -7.377   3.968 -17.701  1.00  0.00    +0.152 C 
BRANCH  22  24
ATOM     24  C   UNL     1      -8.943   3.501 -15.841  1.00  0.00    +0.044 A 
ATOM     25  C   UNL     1      -9.808   4.590 -16.233  1.00  0.00    +0.027 A 
ATOM     26  C   UNL     1      -9.352   2.596 -14.817  1.00  0.00    +0.057 A 
ATOM     27  C   UNL     1     -11.089   4.857 -15.693  1.00  0.00    +0.014 A 
ATOM     28  C   UNL     1     -10.619   2.834 -14.260  1.00  0.00    +0.095 A 
ATOM     29  C   UNL     1     -11.425   3.936 -14.710  1.00  0.00    +0.023 A 
ATOM     30  N   UNL     1     -11.277   2.171 -13.296  1.00  0.00    -0.173 NA
ATOM     31  C   UNL     1     -12.595   3.912 -13.988  1.00  0.00    +0.043 A 
ATOM     32  N   UNL     1     -12.450   2.821 -13.162  1.00  0.00    -0.272 N 
ATOM     33  C   UNL     1     -13.801   4.773 -13.990  1.00  0.00    +0.067 C 
ATOM     34  C   UNL     1     -13.406   2.337 -12.193  1.00  0.00    +0.174 C 
ENDBRANCH  22  24
ENDBRANCH  20  22
ENDBRANCH   1  16
TORSDOF 6
ENDMDL
MODEL 9
REMARK VINA RESULT:    -8.956      2.567      6.084
REMARK INTER + INTRA:         -12.274
REMARK INTER:                 -11.985
REMARK INTRA:                  -0.289
REMARK UNBOUND:                -0.438
REMARK SMILES Cc1ccc(Nc2nccc(N(C)c3ccc4c(C)n(C)nc4c3)n2)cc1S(N)(=O)=O
REMARK SMILES IDX 6 1 5 3 2 4 3 5 27 6 4 7 26 8 1 9 28 10 30 11 31 12 29 13
REMARK SMILES IDX 7 16 8 17 25 18 9 19 11 20 10 21 12 22 13 23 14 24 15 25
REMARK SMILES IDX 24 26 16 27 23 28 17 29 22 30 18 31 20 32 19 33 21 34
REMARK H PARENT 6 2 29 14 29 15
ROOT
ATOM      1  N   UNL     1     -10.783   4.821 -15.818  1.00  0.00    -0.324 N 
ATOM      2  H   UNL     1     -11.174   5.718 -16.073  1.00  0.00    +0.170 HD
ENDROOT
BRANCH   1   3
ATOM      3  C   UNL     1     -11.458   4.077 -14.847  1.00  0.00    +0.042 A 
ATOM      4  C   UNL     1     -12.729   2.475 -12.853  1.00  0.00    -0.031 A 
ATOM      5  C   UNL     1     -13.305   3.669 -13.308  1.00  0.00    +0.007 A 
ATOM      6  C   UNL     1     -11.493   2.095 -13.404  1.00  0.00    +0.087 A 
ATOM      7  C   UNL     1     -12.681   4.451 -14.288  1.00  0.00    +0.026 A 
ATOM      8  C   UNL     1     -10.872   2.892 -14.383  1.00  0.00    +0.048 A 
ATOM      9  C   UNL     1     -13.442   1.696 -11.786  1.00  0.00    +0.046 C 
BRANCH   6  10
ATOM     10  S   UNL     1     -10.638   0.628 -12.882  1.00  0.00    +0.238 S 
ATOM     11  O   UNL     1     -10.721  -0.381 -13.911  1.00  0.00    -0.207 OA
ATOM     12  O   UNL     1     -10.969   0.339 -11.506  1.00  0.00    -0.207 OA
BRANCH  10  13
ATOM     13  N   UNL     1      -9.037   1.139 -12.845  1.00  0.00    -0.225 NA
ATOM     14  H   UNL     1      -8.982   2.123 -13.109  1.00  0.00    +0.137 HD
ATOM     15  H   UNL     1      -8.468   0.522 -13.426  1.00  0.00    +0.137 HD
ENDBRANCH  10  13
ENDBRANCH   6  10
ENDBRANCH   1   3
BRANCH   1  16
ATOM     16  C   UNL     1      -9.585   4.660 -16.508  1.00  0.00    +0.229 A 
ATOM     17  N   UNL     1      -8.958   5.683 -17.101  1.00  0.00    -0.221 NA
ATOM     18  N   UNL     1      -9.119   3.402 -16.528  1.00  0.00    -0.195 NA
ATOM     19  C   UNL     1      -7.820   5.405 -17.756  1.00  0.00    +0.119 A 
ATOM     20  C   UNL     1      -7.968   3.144 -17.178  1.00  0.00    +0.138 A 
ATOM     21  C   UNL     1      -7.277   4.148 -17.827  1.00  0.00    +0.067 A 
BRANCH  20  22
ATOM     22  N   UNL     1      -7.467   1.808 -17.219  1.00  0.00    -0.329 N 
ATOM     23  C   UNL     1      -6.839   1.525 -18.514  1.00  0.00    +0.152 C 
BRANCH  22  24
ATOM     24  C   UNL     1      -6.922   1.155 -16.067  1.00  0.00    +0.044 A 
ATOM     25  C   UNL     1      -6.123   1.857 -15.089  1.00  0.00    +0.027 A 
ATOM     26  C   UNL     1      -7.156  -0.245 -15.927  1.00  0.00    +0.057 A 
ATOM     27  C   UNL     1      -5.532   1.277 -13.941  1.00  0.00    +0.014 A 
ATOM     28  C   UNL     1      -6.582  -0.852 -14.797  1.00  0.00    +0.095 A 
ATOM     29  C   UNL     1      -5.806  -0.082 -13.863  1.00  0.00    +0.023 A 
ATOM     30  N   UNL     1      -6.622  -2.130 -14.391  1.00  0.00    -0.173 NA
ATOM     31  C   UNL     1      -5.382  -0.940 -12.876  1.00  0.00    +0.043 A 
ATOM     32  N   UNL     1      -5.915  -2.154 -13.243  1.00  0.00    -0.272 N 
ATOM     33  C   UNL     1      -4.559  -0.750 -11.658  1.00  0.00    +0.067 C 
ATOM     34  C   UNL     1      -5.777  -3.408 -12.539  1.00  0.00    +0.174 C 
ENDBRANCH  22  24
ENDBRANCH  20  22
ENDBRANCH   1  16
TORSDOF 6
ENDMDL
MODEL 10
REMARK VINA RESULT:    -8.902      2.164      5.666
REMARK INTER + INTRA:         -12.202
REMARK INTER:                 -11.325
REMARK INTRA:                  -0.877
REMARK UNBOUND:                -0.438
REMARK SMILES Cc1ccc(Nc2nccc(N(C)c3ccc4c(C)n(C)nc4c3)n2)cc1S(N)(=O)=O
REMARK SMILES IDX 6 1 5 3 2 4 3 5 27 6 4 7 26 8 1 9 28 10 30 11 31 12 29 13
REMARK SMILES IDX 7 16 8 17 25 18 9 19 11 20 10 21 12 22 13 23 14 24 15 25
REMARK SMILES IDX 24 26 16 27 23 28 17 29 22 30 18 31 20 32 19 33 21 34
REMARK H PARENT 6 2 29 14 29 15
ROOT
ATOM      1  N   UNL     1     -10.641   5.001 -15.913  1.00  0.00    -0.324 N 
ATOM      2  H   UNL     1     -11.105   5.898 -15.879  1.00  0.00    +0.170 HD
ENDROOT
BRANCH   1   3
ATOM      3  C   UNL     1     -10.998   4.055 -14.948  1.00  0.00    +0.042 A 
ATOM      4  C   UNL     1     -11.624   2.044 -13.019  1.00  0.00    -0.031 A 
ATOM      5  C   UNL     1     -12.269   3.289 -13.013  1.00  0.00    +0.007 A 
ATOM      6  C   UNL     1     -10.645   1.821 -14.002  1.00  0.00    +0.087 A 
ATOM      7  C   UNL     1     -11.962   4.272 -13.962  1.00  0.00    +0.026 A 
ATOM      8  C   UNL     1     -10.340   2.818 -14.946  1.00  0.00    +0.048 A 
ATOM      9  C   UNL     1     -11.988   1.044 -11.960  1.00  0.00    +0.046 C 
BRANCH   6  10
ATOM     10  S   UNL     1      -9.726   0.303 -14.091  1.00  0.00    +0.238 S 
ATOM     11  O   UNL     1      -9.053   0.210 -15.364  1.00  0.00    -0.207 OA
ATOM     12  O   UNL     1     -10.531  -0.780 -13.575  1.00  0.00    -0.207 OA
BRANCH  10  13
ATOM     13  N   UNL     1      -8.528   0.541 -12.937  1.00  0.00    -0.225 NA
ATOM     14  H   UNL     1      -8.139   1.479 -13.030  1.00  0.00    +0.137 HD
ATOM     15  H   UNL     1      -7.833  -0.204 -13.007  1.00  0.00    +0.137 HD
ENDBRANCH  10  13
ENDBRANCH   6  10
ENDBRANCH   1   3
BRANCH   1  16
ATOM     16  C   UNL     1      -9.687   5.045 -16.924  1.00  0.00    +0.229 A 
ATOM     17  N   UNL     1      -9.945   5.568 -18.129  1.00  0.00    -0.221 NA
ATOM     18  N   UNL     1      -8.496   4.523 -16.590  1.00  0.00    -0.195 NA
ATOM     19  C   UNL     1      -8.954   5.537 -19.034  1.00  0.00    +0.119 A 
ATOM     20  C   UNL     1      -7.509   4.514 -17.506  1.00  0.00    +0.138 A 
ATOM     21  C   UNL     1      -7.711   5.020 -18.775  1.00  0.00    +0.067 A 
BRANCH  20  22
ATOM     22  N   UNL     1      -6.242   3.950 -17.170  1.00  0.00    -0.329 N 
ATOM     23  C   UNL     1      -5.364   4.957 -16.565  1.00  0.00    +0.152 C 
BRANCH  22  24
ATOM     24  C   UNL     1      -6.098   2.597 -16.721  1.00  0.00    +0.044 A 
ATOM     25  C   UNL     1      -6.274   1.468 -17.605  1.00  0.00    +0.027 A 
ATOM     26  C   UNL     1      -5.811   2.385 -15.340  1.00  0.00    +0.057 A 
ATOM     27  C   UNL     1      -6.171   0.107 -17.231  1.00  0.00    +0.014 A 
ATOM     28  C   UNL     1      -5.703   1.044 -14.935  1.00  0.00    +0.095 A 
ATOM     29  C   UNL     1      -5.883  -0.025 -15.879  1.00  0.00    +0.023 A 
ATOM     30  N   UNL     1      -5.444   0.526 -13.725  1.00  0.00    -0.173 NA
ATOM     31  C   UNL     1      -5.719  -1.208 -15.197  1.00  0.00    +0.043 A 
ATOM     32  N   UNL     1      -5.446  -0.810 -13.909  1.00  0.00    -0.272 N 
ATOM     33  C   UNL     1      -5.785  -2.630 -15.610  1.00  0.00    +0.067 C 
ATOM     34  C   UNL     1      -5.182  -1.667 -12.776  1.00  0.00    +0.174 C 
ENDBRANCH  22  24
ENDBRANCH  20  22
ENDBRANCH   1  16
TORSDOF 6
ENDMDL
