MODEL 1
REMARK VINA RESULT:    -9.474      0.000      0.000
REMARK INTER + INTRA:         -12.876
REMARK INTER:                 -13.350
REMARK INTRA:                   0.474
REMARK UNBOUND:                 0.474
REMARK SMILES CCN(CC)CCNC(=O)c1c(C)[nH]c(/C=C2\C(=O)Nc3ccc(F)cc32)c1C
REMARK SMILES IDX 7 1 6 2 3 3 2 4 1 5 4 6 5 7 8 8 9 9 10 10 11 12 12 13 28 14
REMARK SMILES IDX 14 15 15 16 13 17 29 18 16 20 17 21 18 22 27 23 19 24 20 25
REMARK SMILES IDX 26 26 21 27 24 28 22 29 23 30 25 32
REMARK H PARENT 8 11 14 19 20 31
ROOT
ATOM      1  C   UNL     1      -8.295   5.926 -18.876  1.00  0.00    +0.131 C 
ENDROOT
BRANCH   1   2
ATOM      2  C   UNL     1      -9.203   6.374 -20.040  1.00  0.00    +0.105 C 
BRANCH   2   3
ATOM      3  N   UNL     1     -10.009   7.595 -19.830  1.00  0.00    -0.302 NA
BRANCH   3   4
ATOM      4  C   UNL     1      -9.368   8.575 -18.937  1.00  0.00    +0.081 C 
ATOM      5  C   UNL     1      -8.919   9.854 -19.639  1.00  0.00    +0.021 C 
ENDBRANCH   3   4
BRANCH   3   6
ATOM      6  C   UNL     1     -10.412   8.197 -21.112  1.00  0.00    +0.081 C 
ATOM      7  C   UNL     1     -10.455   7.186 -22.253  1.00  0.00    +0.021 C 
ENDBRANCH   3   6
ENDBRANCH   2   3
ENDBRANCH   1   2
BRANCH   1   8
ATOM      8  N   UNL     1      -9.057   5.435 -17.746  1.00  0.00    -0.351 N 
ATOM      9  C   UNL     1      -8.622   4.374 -16.985  1.00  0.00    +0.253 C 
ATOM     10  O   UNL     1      -7.574   3.778 -17.210  1.00  0.00    -0.269 OA
ATOM     11  H   UNL     1     -10.001   5.765 -17.606  1.00  0.00    +0.163 HD
BRANCH   9  12
ATOM     12  C   UNL     1      -9.548   3.986 -15.919  1.00  0.00    +0.063 A 
ATOM     13  C   UNL     1     -10.711   4.676 -15.613  1.00  0.00    +0.025 A 
ATOM     14  C   UNL     1      -9.495   2.861 -15.016  1.00  0.00    -0.013 A 
ATOM     15  N   UNL     1     -11.312   4.050 -14.552  1.00  0.00    -0.358 N 
ATOM     16  C   UNL     1     -10.590   2.951 -14.159  1.00  0.00    +0.043 A 
ATOM     17  C   UNL     1     -11.307   5.890 -16.229  1.00  0.00    +0.065 C 
ATOM     18  C   UNL     1      -8.468   1.776 -15.019  1.00  0.00    +0.047 C 
ATOM     19  H   UNL     1     -12.179   4.366 -14.127  1.00  0.00    +0.166 HD
BRANCH  16  20
ATOM     20  C   UNL     1     -10.996   2.120 -13.073  1.00  0.00    +0.041 C 
ATOM     21  C   UNL     1     -12.182   2.039 -12.449  1.00  0.00    +0.051 C 
ATOM     22  C   UNL     1     -13.477   2.787 -12.668  1.00  0.00    +0.256 C 
ATOM     23  C   UNL     1     -12.435   1.110 -11.328  1.00  0.00    +0.014 A 
ATOM     24  O   UNL     1     -13.721   3.651 -13.489  1.00  0.00    -0.269 OA
ATOM     25  N   UNL     1     -14.360   2.285 -11.728  1.00  0.00    -0.321 N 
ATOM     26  C   UNL     1     -11.654   0.175 -10.671  1.00  0.00    +0.050 A 
ATOM     27  C   UNL     1     -13.766   1.308 -10.941  1.00  0.00    +0.049 A 
ATOM     28  C   UNL     1     -12.242  -0.544  -9.630  1.00  0.00    +0.123 A 
ATOM     29  C   UNL     1     -14.360   0.604  -9.911  1.00  0.00    +0.030 A 
ATOM     30  C   UNL     1     -13.576  -0.339  -9.247  1.00  0.00    +0.041 A 
ATOM     31  H   UNL     1     -15.312   2.610 -11.650  1.00  0.00    +0.170 HD
ATOM     32  F   UNL     1     -11.511  -1.455  -8.973  1.00  0.00    -0.207 F 
ENDBRANCH  16  20
ENDBRANCH   9  12
ENDBRANCH   1   8
TORSDOF 7
ENDMDL
MODEL 2
REMARK VINA RESULT:    -9.417      3.390      9.875
REMARK INTER + INTRA:         -12.796
REMARK INTER:                 -11.625
REMARK INTRA:                  -1.172
REMARK UNBOUND:                 0.474
REMARK SMILES CCN(CC)CCNC(=O)c1c(C)[nH]c(/C=C2\C(=O)Nc3ccc(F)cc32)c1C
REMARK SMILES IDX 7 1 6 2 3 3 2 4 1 5 4 6 5 7 8 8 9 9 10 10 11 12 12 13 28 14
REMARK SMILES IDX 14 15 15 16 13 17 29 18 16 20 17 21 18 22 27 23 19 24 20 25
REMARK SMILES IDX 26 26 21 27 24 28 22 29 23 30 25 32
REMARK H PARENT 8 11 14 19 20 31
ROOT
ATOM      1  C   UNL     1     -11.361  -1.203 -10.039  1.00  0.00    +0.131 C 
ENDROOT
BRANCH   1   2
ATOM      2  C   UNL     1     -12.543  -0.572  -9.275  1.00  0.00    +0.105 C 
BRANCH   2   3
ATOM      3  N   UNL     1     -13.885  -0.716  -9.877  1.00  0.00    -0.302 NA
BRANCH   3   4
ATOM      4  C   UNL     1     -14.711  -1.749  -9.229  1.00  0.00    +0.081 C 
ATOM      5  C   UNL     1     -14.382  -3.173  -9.668  1.00  0.00    +0.021 C 
ENDBRANCH   3   4
BRANCH   3   6
ATOM      6  C   UNL     1     -14.579   0.580  -9.953  1.00  0.00    +0.081 C 
ATOM      7  C   UNL     1     -13.963   1.522 -10.983  1.00  0.00    +0.021 C 
ENDBRANCH   3   6
ENDBRANCH   2   3
ENDBRANCH   1   2
BRANCH   1   8
ATOM      8  N   UNL     1     -10.769  -0.281 -10.988  1.00  0.00    -0.351 N 
ATOM      9  C   UNL     1     -10.482  -0.657 -12.280  1.00  0.00    +0.253 C 
ATOM     10  O   UNL     1     -10.703  -1.784 -12.711  1.00  0.00    -0.269 OA
ATOM     11  H   UNL     1     -10.408   0.603 -10.658  1.00  0.00    +0.163 HD
BRANCH   9  12
ATOM     12  C   UNL     1      -9.841   0.390 -13.077  1.00  0.00    +0.063 A 
ATOM     13  C   UNL     1      -8.472   0.483 -13.278  1.00  0.00    +0.025 A 
ATOM     14  C   UNL     1     -10.433   1.480 -13.815  1.00  0.00    -0.013 A 
ATOM     15  N   UNL     1      -8.227   1.591 -14.046  1.00  0.00    -0.358 N 
ATOM     16  C   UNL     1      -9.398   2.225 -14.377  1.00  0.00    +0.043 A 
ATOM     17  C   UNL     1      -7.362  -0.382 -12.797  1.00  0.00    +0.065 C 
ATOM     18  C   UNL     1     -11.894   1.745 -13.975  1.00  0.00    +0.047 C 
ATOM     19  H   UNL     1      -7.298   1.888 -14.328  1.00  0.00    +0.166 HD
BRANCH  16  20
ATOM     20  C   UNL     1      -9.426   3.408 -15.173  1.00  0.00    +0.041 C 
ATOM     21  C   UNL     1      -8.847   3.663 -16.357  1.00  0.00    +0.051 C 
ATOM     22  C   UNL     1      -7.975   2.804 -17.246  1.00  0.00    +0.256 C 
ATOM     23  C   UNL     1      -8.981   4.960 -17.052  1.00  0.00    +0.014 A 
ATOM     24  O   UNL     1      -7.605   1.661 -17.062  1.00  0.00    -0.269 OA
ATOM     25  N   UNL     1      -7.670   3.593 -18.341  1.00  0.00    -0.321 N 
ATOM     26  C   UNL     1      -9.643   6.137 -16.752  1.00  0.00    +0.050 A 
ATOM     27  C   UNL     1      -8.249   4.851 -18.241  1.00  0.00    +0.049 A 
ATOM     28  C   UNL     1      -9.549   7.186 -17.668  1.00  0.00    +0.123 A 
ATOM     29  C   UNL     1      -8.147   5.881 -19.157  1.00  0.00    +0.030 A 
ATOM     30  C   UNL     1      -8.813   7.069 -18.857  1.00  0.00    +0.041 A 
ATOM     31  H   UNL     1      -7.095   3.265 -19.102  1.00  0.00    +0.170 HD
ATOM     32  F   UNL     1     -10.178   8.339 -17.405  1.00  0.00    -0.207 F 
ENDBRANCH  16  20
ENDBRANCH   9  12
ENDBRANCH   1   8
TORSDOF 7
ENDMDL
MODEL 3
REMARK VINA RESULT:    -9.297      2.183      3.421
REMARK INTER + INTRA:         -12.627
REMARK INTER:                 -11.660
REMARK INTRA:                  -0.967
REMARK UNBOUND:                 0.474
REMARK SMILES CCN(CC)CCNC(=O)c1c(C)[nH]c(/C=C2\C(=O)Nc3ccc(F)cc32)c1C
REMARK SMILES IDX 7 1 6 2 3 3 2 4 1 5 4 6 5 7 8 8 9 9 10 10 11 12 12 13 28 14
REMARK SMILES IDX 14 15 15 16 13 17 29 18 16 20 17 21 18 22 27 23 19 24 20 25
REMARK SMILES IDX 26 26 21 27 24 28 22 29 23 30 25 32
REMARK H PARENT 8 11 14 19 20 31
ROOT
ATOM      1  C   UNL     1     -10.629   5.960 -17.022  1.00  0.00    +0.131 C 
ENDROOT
BRANCH   1   2
ATOM      2  C   UNL     1      -9.240   6.617 -17.156  1.00  0.00    +0.105 C 
BRANCH   2   3
ATOM      3  N   UNL     1      -8.591   6.550 -18.482  1.00  0.00    -0.302 NA
BRANCH   3   4
ATOM      4  C   UNL     1      -7.935   5.259 -18.750  1.00  0.00    +0.081 C 
ATOM      5  C   UNL     1      -7.026   4.779 -17.622  1.00  0.00    +0.021 C 
ENDBRANCH   3   4
BRANCH   3   6
ATOM      6  C   UNL     1      -9.526   6.927 -19.555  1.00  0.00    +0.081 C 
ATOM      7  C   UNL     1      -9.564   8.432 -19.805  1.00  0.00    +0.021 C 
ENDBRANCH   3   6
ENDBRANCH   2   3
ENDBRANCH   1   2
BRANCH   1   8
ATOM      8  N   UNL     1     -10.736   5.147 -15.828  1.00  0.00    -0.351 N 
ATOM      9  C   UNL     1     -10.359   3.823 -15.817  1.00  0.00    +0.253 C 
ATOM     10  O   UNL     1      -9.914   3.249 -16.805  1.00  0.00    -0.269 OA
ATOM     11  H   UNL     1     -11.246   5.503 -15.032  1.00  0.00    +0.163 HD
BRANCH   9  12
ATOM     12  C   UNL     1     -10.588   3.149 -14.537  1.00  0.00    +0.063 A 
ATOM     13  C   UNL     1      -9.577   2.634 -13.741  1.00  0.00    +0.025 A 
ATOM     14  C   UNL     1     -11.824   2.901 -13.834  1.00  0.00    -0.013 A 
ATOM     15  N   UNL     1     -10.153   2.055 -12.640  1.00  0.00    -0.358 N 
ATOM     16  C   UNL     1     -11.518   2.190 -12.675  1.00  0.00    +0.043 A 
ATOM     17  C   UNL     1      -8.102   2.629 -13.930  1.00  0.00    +0.065 C 
ATOM     18  C   UNL     1     -13.184   3.352 -14.256  1.00  0.00    +0.047 C 
ATOM     19  H   UNL     1      -9.626   1.596 -11.903  1.00  0.00    +0.166 HD
BRANCH  16  20
ATOM     20  C   UNL     1     -12.362   1.674 -11.647  1.00  0.00    +0.041 C 
ATOM     21  C   UNL     1     -12.287   0.515 -10.973  1.00  0.00    +0.051 C 
ATOM     22  C   UNL     1     -11.305  -0.630 -11.066  1.00  0.00    +0.256 C 
ATOM     23  C   UNL     1     -13.256   0.135  -9.924  1.00  0.00    +0.014 A 
ATOM     24  O   UNL     1     -10.342  -0.743 -11.801  1.00  0.00    -0.269 OA
ATOM     25  N   UNL     1     -11.724  -1.557 -10.127  1.00  0.00    -0.321 N 
ATOM     26  C   UNL     1     -14.371   0.754  -9.388  1.00  0.00    +0.050 A 
ATOM     27  C   UNL     1     -12.859  -1.124  -9.455  1.00  0.00    +0.049 A 
ATOM     28  C   UNL     1     -15.064   0.081  -8.381  1.00  0.00    +0.123 A 
ATOM     29  C   UNL     1     -13.537  -1.801  -8.459  1.00  0.00    +0.030 A 
ATOM     30  C   UNL     1     -14.661  -1.180  -7.916  1.00  0.00    +0.041 A 
ATOM     31  H   UNL     1     -11.242  -2.430  -9.973  1.00  0.00    +0.170 HD
ATOM     32  F   UNL     1     -16.149   0.655  -7.842  1.00  0.00    -0.207 F 
ENDBRANCH  16  20
ENDBRANCH   9  12
ENDBRANCH   1   8
TORSDOF 7
ENDMDL
MODEL 4
REMARK VINA RESULT:    -9.088      3.649      9.979
REMARK INTER + INTRA:         -12.333
REMARK INTER:                 -11.724
REMARK INTRA:                  -0.609
REMARK UNBOUND:                 0.474
REMARK SMILES CCN(CC)CCNC(=O)c1c(C)[nH]c(/C=C2\C(=O)Nc3ccc(F)cc32)c1C
REMARK SMILES IDX 7 1 6 2 3 3 2 4 1 5 4 6 5 7 8 8 9 9 10 10 11 12 12 13 28 14
REMARK SMILES IDX 14 15 15 16 13 17 29 18 16 20 17 21 18 22 27 23 19 24 20 25
REMARK SMILES IDX 26 26 21 27 24 28 22 29 23 30 25 32
REMARK H PARENT 8 11 14 19 20 31
ROOT
ATOM      1  C   UNL     1     -10.059  -2.097  -9.722  1.00  0.00    +0.131 C 
ENDROOT
BRANCH   1   2
ATOM      2  C   UNL     1     -11.237  -2.227  -8.734  1.00  0.00    +0.105 C 
BRANCH   2   3
ATOM      3  N   UNL     1     -12.383  -3.056  -9.162  1.00  0.00    -0.302 NA
BRANCH   3   4
ATOM      4  C   UNL     1     -13.439  -2.290  -9.846  1.00  0.00    +0.081 C 
ATOM      5  C   UNL     1     -14.852  -2.625  -9.376  1.00  0.00    +0.021 C 
ENDBRANCH   3   4
BRANCH   3   6
ATOM      6  C   UNL     1     -11.939  -4.214  -9.956  1.00  0.00    +0.081 C 
ATOM      7  C   UNL     1     -12.512  -5.534  -9.449  1.00  0.00    +0.021 C 
ENDBRANCH   3   6
ENDBRANCH   2   3
ENDBRANCH   1   2
BRANCH   1   8
ATOM      8  N   UNL     1     -10.198  -0.943 -10.588  1.00  0.00    -0.351 N 
ATOM      9  C   UNL     1     -10.540  -1.071 -11.915  1.00  0.00    +0.253 C 
ATOM     10  O   UNL     1     -10.747  -2.156 -12.448  1.00  0.00    -0.269 OA
ATOM     11  H   UNL     1      -9.881  -0.041 -10.263  1.00  0.00    +0.163 HD
BRANCH   9  12
ATOM     12  C   UNL     1     -10.582   0.198 -12.645  1.00  0.00    +0.063 A 
ATOM     13  C   UNL     1     -11.464   1.228 -12.358  1.00  0.00    +0.025 A 
ATOM     14  C   UNL     1      -9.759   0.661 -13.737  1.00  0.00    -0.013 A 
ATOM     15  N   UNL     1     -11.239   2.244 -13.251  1.00  0.00    -0.358 N 
ATOM     16  C   UNL     1     -10.218   1.923 -14.110  1.00  0.00    +0.043 A 
ATOM     17  C   UNL     1     -12.518   1.339 -11.315  1.00  0.00    +0.065 C 
ATOM     18  C   UNL     1      -8.603  -0.068 -14.340  1.00  0.00    +0.047 C 
ATOM     19  H   UNL     1     -11.764   3.114 -13.260  1.00  0.00    +0.166 HD
BRANCH  16  20
ATOM     20  C   UNL     1      -9.781   2.807 -15.139  1.00  0.00    +0.041 C 
ATOM     21  C   UNL     1     -10.311   3.968 -15.559  1.00  0.00    +0.051 C 
ATOM     22  C   UNL     1     -11.535   4.728 -15.101  1.00  0.00    +0.256 C 
ATOM     23  C   UNL     1      -9.723   4.768 -16.653  1.00  0.00    +0.014 A 
ATOM     24  O   UNL     1     -12.323   4.433 -14.223  1.00  0.00    -0.269 OA
ATOM     25  N   UNL     1     -11.590   5.858 -15.898  1.00  0.00    -0.321 N 
ATOM     26  C   UNL     1      -8.612   4.604 -17.463  1.00  0.00    +0.050 A 
ATOM     27  C   UNL     1     -10.540   5.894 -16.805  1.00  0.00    +0.049 A 
ATOM     28  C   UNL     1      -8.353   5.589 -18.415  1.00  0.00    +0.123 A 
ATOM     29  C   UNL     1     -10.295   6.878 -17.744  1.00  0.00    +0.030 A 
ATOM     30  C   UNL     1      -9.177   6.715 -18.562  1.00  0.00    +0.041 A 
ATOM     31  H   UNL     1     -12.316   6.553 -15.804  1.00  0.00    +0.170 HD
ATOM     32  F   UNL     1      -7.285   5.458 -19.215  1.00  0.00    -0.207 F 
ENDBRANCH  16  20
ENDBRANCH   9  12
ENDBRANCH   1   8
TORSDOF 7
ENDMDL
MODEL 5
REMARK VINA RESULT:    -9.068      3.367     10.256
REMARK INTER + INTRA:         -12.304
REMARK INTER:                 -11.770
REMARK INTRA:                  -0.534
REMARK UNBOUND:                 0.474
REMARK SMILES CCN(CC)CCNC(=O)c1c(C)[nH]c(/C=C2\C(=O)Nc3ccc(F)cc32)c1C
REMARK SMILES IDX 7 1 6 2 3 3 2 4 1 5 4 6 5 7 8 8 9 9 10 10 11 12 12 13 28 14
REMARK SMILES IDX 14 15 15 16 13 17 29 18 16 20 17 21 18 22 27 23 19 24 20 25
REMARK SMILES IDX 26 26 21 27 24 28 22 29 23 30 25 32
REMARK H PARENT 8 11 14 19 20 31
ROOT
ATOM      1  C   UNL     1     -12.005   0.166  -8.944  1.00  0.00    +0.131 C 
ENDROOT
BRANCH   1   2
ATOM      2  C   UNL     1     -12.051  -1.374  -8.874  1.00  0.00    +0.105 C 
BRANCH   2   3
ATOM      3  N   UNL     1     -13.189  -2.043  -9.541  1.00  0.00    -0.302 NA
BRANCH   3   4
ATOM      4  C   UNL     1     -13.068  -3.510  -9.576  1.00  0.00    +0.081 C 
ATOM      5  C   UNL     1     -12.642  -4.066 -10.932  1.00  0.00    +0.021 C 
ENDBRANCH   3   4
BRANCH   3   6
ATOM      6  C   UNL     1     -14.475  -1.607  -8.971  1.00  0.00    +0.081 C 
ATOM      7  C   UNL     1     -15.571  -2.659  -9.112  1.00  0.00    +0.021 C 
ENDBRANCH   3   6
ENDBRANCH   2   3
ENDBRANCH   1   2
BRANCH   1   8
ATOM      8  N   UNL     1     -11.507   0.640 -10.219  1.00  0.00    -0.351 N 
ATOM      9  C   UNL     1     -12.355   1.096 -11.204  1.00  0.00    +0.253 C 
ATOM     10  O   UNL     1     -13.573   1.130 -11.070  1.00  0.00    -0.269 OA
ATOM     11  H   UNL     1     -10.539   0.484 -10.460  1.00  0.00    +0.163 HD
BRANCH   9  12
ATOM     12  C   UNL     1     -11.676   1.484 -12.442  1.00  0.00    +0.063 A 
ATOM     13  C   UNL     1     -10.694   0.724 -13.058  1.00  0.00    +0.025 A 
ATOM     14  C   UNL     1     -11.870   2.648 -13.273  1.00  0.00    -0.013 A 
ATOM     15  N   UNL     1     -10.267   1.400 -14.172  1.00  0.00    -0.358 N 
ATOM     16  C   UNL     1     -10.954   2.579 -14.322  1.00  0.00    +0.043 A 
ATOM     17  C   UNL     1     -10.108  -0.590 -12.683  1.00  0.00    +0.065 C 
ATOM     18  C   UNL     1     -12.890   3.719 -13.066  1.00  0.00    +0.047 C 
ATOM     19  H   UNL     1      -9.542   1.059 -14.796  1.00  0.00    +0.166 HD
BRANCH  16  20
ATOM     20  C   UNL     1     -10.704   3.475 -15.402  1.00  0.00    +0.041 C 
ATOM     21  C   UNL     1      -9.583   3.670 -16.116  1.00  0.00    +0.051 C 
ATOM     22  C   UNL     1      -8.219   3.025 -16.026  1.00  0.00    +0.256 C 
ATOM     23  C   UNL     1      -9.496   4.652 -17.217  1.00  0.00    +0.014 A 
ATOM     24  O   UNL     1      -7.840   2.162 -15.258  1.00  0.00    -0.269 OA
ATOM     25  N   UNL     1      -7.459   3.624 -17.016  1.00  0.00    -0.321 N 
ATOM     26  C   UNL     1     -10.399   5.540 -17.775  1.00  0.00    +0.050 A 
ATOM     27  C   UNL     1      -8.191   4.573 -17.717  1.00  0.00    +0.049 A 
ATOM     28  C   UNL     1      -9.958   6.334 -18.834  1.00  0.00    +0.123 A 
ATOM     29  C   UNL     1      -7.740   5.353 -18.765  1.00  0.00    +0.030 A 
ATOM     30  C   UNL     1      -8.648   6.249 -19.330  1.00  0.00    +0.041 A 
ATOM     31  H   UNL     1      -6.495   3.377 -17.184  1.00  0.00    +0.170 HD
ATOM     32  F   UNL     1     -10.808   7.204 -19.395  1.00  0.00    -0.207 F 
ENDBRANCH  16  20
ENDBRANCH   9  12
ENDBRANCH   1   8
TORSDOF 7
ENDMDL
MODEL 6
REMARK VINA RESULT:    -8.937      3.522      9.806
REMARK INTER + INTRA:         -12.121
REMARK INTER:                 -11.410
REMARK INTRA:                  -0.711
REMARK UNBOUND:                 0.474
REMARK SMILES CCN(CC)CCNC(=O)c1c(C)[nH]c(/C=C2\C(=O)Nc3ccc(F)cc32)c1C
REMARK SMILES IDX 7 1 6 2 3 3 2 4 1 5 4 6 5 7 8 8 9 9 10 10 11 12 12 13 28 14
REMARK SMILES IDX 14 15 15 16 13 17 29 18 16 20 17 21 18 22 27 23 19 24 20 25
REMARK SMILES IDX 26 26 21 27 24 28 22 29 23 30 25 32
REMARK H PARENT 8 11 14 19 20 31
ROOT
ATOM      1  C   UNL     1      -9.790  -2.421  -9.831  1.00  0.00    +0.131 C 
ENDROOT
BRANCH   1   2
ATOM      2  C   UNL     1     -11.004  -2.667  -8.911  1.00  0.00    +0.105 C 
BRANCH   2   3
ATOM      3  N   UNL     1     -12.122  -1.704  -9.003  1.00  0.00    -0.302 NA
BRANCH   3   4
ATOM      4  C   UNL     1     -13.253  -2.194  -9.808  1.00  0.00    +0.081 C 
ATOM      5  C   UNL     1     -13.291  -3.712  -9.967  1.00  0.00    +0.021 C 
ENDBRANCH   3   4
BRANCH   3   6
ATOM      6  C   UNL     1     -12.549  -1.251  -7.669  1.00  0.00    +0.081 C 
ATOM      7  C   UNL     1     -12.356   0.248  -7.463  1.00  0.00    +0.021 C 
ENDBRANCH   3   6
ENDBRANCH   2   3
ENDBRANCH   1   2
BRANCH   1   8
ATOM      8  N   UNL     1      -9.950  -1.228 -10.639  1.00  0.00    -0.351 N 
ATOM      9  C   UNL     1     -10.449  -1.283 -11.920  1.00  0.00    +0.253 C 
ATOM     10  O   UNL     1     -10.787  -2.331 -12.459  1.00  0.00    -0.269 OA
ATOM     11  H   UNL     1      -9.540  -0.360 -10.325  1.00  0.00    +0.163 HD
BRANCH   9  12
ATOM     12  C   UNL     1     -10.490   0.014 -12.600  1.00  0.00    +0.063 A 
ATOM     13  C   UNL     1     -11.330   1.054 -12.235  1.00  0.00    +0.025 A 
ATOM     14  C   UNL     1      -9.705   0.497 -13.711  1.00  0.00    -0.013 A 
ATOM     15  N   UNL     1     -11.119   2.097 -13.099  1.00  0.00    -0.358 N 
ATOM     16  C   UNL     1     -10.146   1.783 -14.016  1.00  0.00    +0.043 A 
ATOM     17  C   UNL     1     -12.332   1.152 -11.141  1.00  0.00    +0.065 C 
ATOM     18  C   UNL     1      -8.597  -0.237 -14.393  1.00  0.00    +0.047 C 
ATOM     19  H   UNL     1     -11.619   2.979 -13.053  1.00  0.00    +0.166 HD
BRANCH  16  20
ATOM     20  C   UNL     1      -9.733   2.695 -15.032  1.00  0.00    +0.041 C 
ATOM     21  C   UNL     1     -10.291   3.849 -15.431  1.00  0.00    +0.051 C 
ATOM     22  C   UNL     1     -11.531   4.573 -14.956  1.00  0.00    +0.256 C 
ATOM     23  C   UNL     1      -9.724   4.681 -16.512  1.00  0.00    +0.014 A 
ATOM     24  O   UNL     1     -12.309   4.246 -14.081  1.00  0.00    -0.269 OA
ATOM     25  N   UNL     1     -11.614   5.715 -15.734  1.00  0.00    -0.321 N 
ATOM     26  C   UNL     1      -8.613   4.557 -17.327  1.00  0.00    +0.050 A 
ATOM     27  C   UNL     1     -10.568   5.791 -16.643  1.00  0.00    +0.049 A 
ATOM     28  C   UNL     1      -8.378   5.564 -18.263  1.00  0.00    +0.123 A 
ATOM     29  C   UNL     1     -10.348   6.796 -17.566  1.00  0.00    +0.030 A 
ATOM     30  C   UNL     1      -9.229   6.672 -18.389  1.00  0.00    +0.041 A 
ATOM     31  H   UNL     1     -12.356   6.392 -15.627  1.00  0.00    +0.170 HD
ATOM     32  F   UNL     1      -7.310   5.471 -19.067  1.00  0.00    -0.207 F 
ENDBRANCH  16  20
ENDBRANCH   9  12
ENDBRANCH   1   8
TORSDOF 7
ENDMDL
MODEL 7
REMARK VINA RESULT:    -8.890      3.832      6.063
REMARK INTER + INTRA:         -12.054
REMARK INTER:                 -10.962
REMARK INTRA:                  -1.092
REMARK UNBOUND:                 0.474
REMARK SMILES CCN(CC)CCNC(=O)c1c(C)[nH]c(/C=C2\C(=O)Nc3ccc(F)cc32)c1C
REMARK SMILES IDX 7 1 6 2 3 3 2 4 1 5 4 6 5 7 8 8 9 9 10 10 11 12 12 13 28 14
REMARK SMILES IDX 14 15 15 16 13 17 29 18 16 20 17 21 18 22 27 23 19 24 20 25
REMARK SMILES IDX 26 26 21 27 24 28 22 29 23 30 25 32
REMARK H PARENT 8 11 14 19 20 31
ROOT
ATOM      1  C   UNL     1     -10.979   6.305 -18.392  1.00  0.00    +0.131 C 
ENDROOT
BRANCH   1   2
ATOM      2  C   UNL     1     -10.413   6.332 -19.827  1.00  0.00    +0.105 C 
BRANCH   2   3
ATOM      3  N   UNL     1      -9.462   7.415 -20.153  1.00  0.00    -0.302 NA
BRANCH   3   4
ATOM      4  C   UNL     1      -9.670   7.995 -21.491  1.00  0.00    +0.081 C 
ATOM      5  C   UNL     1     -10.571   7.159 -22.396  1.00  0.00    +0.021 C 
ENDBRANCH   3   4
BRANCH   3   6
ATOM      6  C   UNL     1      -9.444   8.446 -19.102  1.00  0.00    +0.081 C 
ATOM      7  C   UNL     1      -9.039   9.820 -19.627  1.00  0.00    +0.021 C 
ENDBRANCH   3   6
ENDBRANCH   2   3
ENDBRANCH   1   2
BRANCH   1   8
ATOM      8  N   UNL     1     -10.606   5.099 -17.680  1.00  0.00    -0.351 N 
ATOM      9  C   UNL     1      -9.516   5.062 -16.841  1.00  0.00    +0.253 C 
ATOM     10  O   UNL     1      -8.795   6.034 -16.642  1.00  0.00    -0.269 OA
ATOM     11  H   UNL     1     -11.049   4.225 -17.924  1.00  0.00    +0.163 HD
BRANCH   9  12
ATOM     12  C   UNL     1      -9.263   3.746 -16.250  1.00  0.00    +0.063 A 
ATOM     13  C   UNL     1     -10.005   3.207 -15.212  1.00  0.00    +0.025 A 
ATOM     14  C   UNL     1      -8.273   2.755 -16.599  1.00  0.00    -0.013 A 
ATOM     15  N   UNL     1      -9.476   1.982 -14.899  1.00  0.00    -0.358 N 
ATOM     16  C   UNL     1      -8.414   1.685 -15.716  1.00  0.00    +0.043 A 
ATOM     17  C   UNL     1     -11.174   3.752 -14.472  1.00  0.00    +0.065 C 
ATOM     18  C   UNL     1      -7.294   2.843 -17.723  1.00  0.00    +0.047 C 
ATOM     19  H   UNL     1      -9.835   1.383 -14.161  1.00  0.00    +0.166 HD
BRANCH  16  20
ATOM     20  C   UNL     1      -7.681   0.467 -15.602  1.00  0.00    +0.041 C 
ATOM     21  C   UNL     1      -6.500   0.226 -15.010  1.00  0.00    +0.051 C 
ATOM     22  C   UNL     1      -5.549   1.142 -14.273  1.00  0.00    +0.256 C 
ATOM     23  C   UNL     1      -5.876  -1.113 -14.983  1.00  0.00    +0.014 A 
ATOM     24  O   UNL     1      -5.661   2.333 -14.058  1.00  0.00    -0.269 OA
ATOM     25  N   UNL     1      -4.491   0.340 -13.880  1.00  0.00    -0.321 N 
ATOM     26  C   UNL     1      -6.251  -2.349 -15.480  1.00  0.00    +0.050 A 
ATOM     27  C   UNL     1      -4.669  -0.975 -14.287  1.00  0.00    +0.049 A 
ATOM     28  C   UNL     1      -5.392  -3.425 -15.259  1.00  0.00    +0.123 A 
ATOM     29  C   UNL     1      -3.808  -2.032 -14.061  1.00  0.00    +0.030 A 
ATOM     30  C   UNL     1      -4.183  -3.279 -14.561  1.00  0.00    +0.041 A 
ATOM     31  H   UNL     1      -3.703   0.698 -13.361  1.00  0.00    +0.170 HD
ATOM     32  F   UNL     1      -5.727  -4.635 -15.729  1.00  0.00    -0.207 F 
ENDBRANCH  16  20
ENDBRANCH   9  12
ENDBRANCH   1   8
TORSDOF 7
ENDMDL
MODEL 8
REMARK VINA RESULT:    -8.832      2.851      4.849
REMARK INTER + INTRA:         -11.972
REMARK INTER:                 -11.235
REMARK INTRA:                  -0.738
REMARK UNBOUND:                 0.474
REMARK SMILES CCN(CC)CCNC(=O)c1c(C)[nH]c(/C=C2\C(=O)Nc3ccc(F)cc32)c1C
REMARK SMILES IDX 7 1 6 2 3 3 2 4 1 5 4 6 5 7 8 8 9 9 10 10 11 12 12 13 28 14
REMARK SMILES IDX 14 15 15 16 13 17 29 18 16 20 17 21 18 22 27 23 19 24 20 25
REMARK SMILES IDX 26 26 21 27 24 28 22 29 23 30 25 32
REMARK H PARENT 8 11 14 19 20 31
ROOT
ATOM      1  C   UNL     1      -6.943   1.365 -18.453  1.00  0.00    +0.131 C 
ENDROOT
BRANCH   1   2
ATOM      2  C   UNL     1      -5.595   0.822 -17.935  1.00  0.00    +0.105 C 
BRANCH   2   3
ATOM      3  N   UNL     1      -5.522   0.463 -16.503  1.00  0.00    -0.302 NA
BRANCH   3   4
ATOM      4  C   UNL     1      -5.008  -0.897 -16.265  1.00  0.00    +0.081 C 
ATOM      5  C   UNL     1      -6.061  -1.878 -15.757  1.00  0.00    +0.021 C 
ENDBRANCH   3   4
BRANCH   3   6
ATOM      6  C   UNL     1      -4.780   1.476 -15.734  1.00  0.00    +0.081 C 
ATOM      7  C   UNL     1      -5.499   1.890 -14.454  1.00  0.00    +0.021 C 
ENDBRANCH   3   6
ENDBRANCH   2   3
ENDBRANCH   1   2
BRANCH   1   8
ATOM      8  N   UNL     1      -7.900   1.562 -17.383  1.00  0.00    -0.351 N 
ATOM      9  C   UNL     1      -8.159   2.809 -16.863  1.00  0.00    +0.253 C 
ATOM     10  O   UNL     1      -7.603   3.826 -17.264  1.00  0.00    -0.269 OA
ATOM     11  H   UNL     1      -8.266   0.757 -16.894  1.00  0.00    +0.163 HD
BRANCH   9  12
ATOM     12  C   UNL     1      -9.114   2.806 -15.753  1.00  0.00    +0.063 A 
ATOM     13  C   UNL     1     -10.006   3.836 -15.495  1.00  0.00    +0.025 A 
ATOM     14  C   UNL     1      -9.362   1.795 -14.753  1.00  0.00    -0.013 A 
ATOM     15  N   UNL     1     -10.723   3.509 -14.374  1.00  0.00    -0.358 N 
ATOM     16  C   UNL     1     -10.345   2.281 -13.892  1.00  0.00    +0.043 A 
ATOM     17  C   UNL     1     -10.238   5.118 -16.212  1.00  0.00    +0.065 C 
ATOM     18  C   UNL     1      -8.705   0.456 -14.671  1.00  0.00    +0.047 C 
ATOM     19  H   UNL     1     -11.439   4.104 -13.968  1.00  0.00    +0.166 HD
BRANCH  16  20
ATOM     20  C   UNL     1     -10.936   1.702 -12.731  1.00  0.00    +0.041 C 
ATOM     21  C   UNL     1     -12.185   1.818 -12.252  1.00  0.00    +0.051 C 
ATOM     22  C   UNL     1     -13.381   2.589 -12.764  1.00  0.00    +0.256 C 
ATOM     23  C   UNL     1     -12.637   1.140 -11.020  1.00  0.00    +0.014 A 
ATOM     24  O   UNL     1     -13.460   3.291 -13.753  1.00  0.00    -0.269 OA
ATOM     25  N   UNL     1     -14.400   2.335 -11.863  1.00  0.00    -0.321 N 
ATOM     26  C   UNL     1     -12.015   0.303 -10.110  1.00  0.00    +0.050 A 
ATOM     27  C   UNL     1     -13.980   1.493 -10.842  1.00  0.00    +0.049 A 
ATOM     28  C   UNL     1     -12.771  -0.162  -9.034  1.00  0.00    +0.123 A 
ATOM     29  C   UNL     1     -14.741   1.040  -9.781  1.00  0.00    +0.030 A 
ATOM     30  C   UNL     1     -14.117   0.196  -8.863  1.00  0.00    +0.041 A 
ATOM     31  H   UNL     1     -15.324   2.728 -11.964  1.00  0.00    +0.170 HD
ATOM     32  F   UNL     1     -12.196  -0.974  -8.136  1.00  0.00    -0.207 F 
ENDBRANCH  16  20
ENDBRANCH   9  12
ENDBRANCH   1   8
TORSDOF 7
ENDMDL
MODEL 9
REMARK VINA RESULT:    -8.765      3.928     10.748
REMARK INTER + INTRA:         -11.878
REMARK INTER:                 -10.677
REMARK INTRA:                  -1.201
REMARK UNBOUND:                 0.474
REMARK SMILES CCN(CC)CCNC(=O)c1c(C)[nH]c(/C=C2\C(=O)Nc3ccc(F)cc32)c1C
REMARK SMILES IDX 7 1 6 2 3 3 2 4 1 5 4 6 5 7 8 8 9 9 10 10 11 12 12 13 28 14
REMARK SMILES IDX 14 15 15 16 13 17 29 18 16 20 17 21 18 22 27 23 19 24 20 25
REMARK SMILES IDX 26 26 21 27 24 28 22 29 23 30 25 32
REMARK H PARENT 8 11 14 19 20 31
ROOT
ATOM      1  C   UNL     1     -15.064  -2.359  -8.744  1.00  0.00    +0.131 C 
ENDROOT
BRANCH   1   2
ATOM      2  C   UNL     1     -14.472  -3.589  -8.025  1.00  0.00    +0.105 C 
BRANCH   2   3
ATOM      3  N   UNL     1     -13.068  -3.935  -8.332  1.00  0.00    -0.302 NA
BRANCH   3   4
ATOM      4  C   UNL     1     -12.189  -3.922  -7.151  1.00  0.00    +0.081 C 
ATOM      5  C   UNL     1     -12.542  -2.848  -6.125  1.00  0.00    +0.021 C 
ENDBRANCH   3   4
BRANCH   3   6
ATOM      6  C   UNL     1     -12.979  -5.204  -9.073  1.00  0.00    +0.081 C 
ATOM      7  C   UNL     1     -13.269  -5.042 -10.562  1.00  0.00    +0.021 C 
ENDBRANCH   3   6
ENDBRANCH   2   3
ENDBRANCH   1   2
BRANCH   1   8
ATOM      8  N   UNL     1     -14.097  -1.716  -9.611  1.00  0.00    -0.351 N 
ATOM      9  C   UNL     1     -13.447  -0.561  -9.241  1.00  0.00    +0.253 C 
ATOM     10  O   UNL     1     -13.640  -0.004  -8.165  1.00  0.00    -0.269 OA
ATOM     11  H   UNL     1     -14.013  -2.022 -10.570  1.00  0.00    +0.163 HD
BRANCH   9  12
ATOM     12  C   UNL     1     -12.546  -0.028 -10.265  1.00  0.00    +0.063 A 
ATOM     13  C   UNL     1     -11.278  -0.528 -10.518  1.00  0.00    +0.025 A 
ATOM     14  C   UNL     1     -12.756   1.044 -11.209  1.00  0.00    -0.013 A 
ATOM     15  N   UNL     1     -10.715   0.223 -11.517  1.00  0.00    -0.358 N 
ATOM     16  C   UNL     1     -11.584   1.194 -11.948  1.00  0.00    +0.043 A 
ATOM     17  C   UNL     1     -10.537  -1.652  -9.888  1.00  0.00    +0.065 C 
ATOM     18  C   UNL     1     -14.012   1.832 -11.384  1.00  0.00    +0.047 C 
ATOM     19  H   UNL     1      -9.780   0.066 -11.882  1.00  0.00    +0.166 HD
BRANCH  16  20
ATOM     20  C   UNL     1     -11.245   2.114 -12.983  1.00  0.00    +0.041 C 
ATOM     21  C   UNL     1     -10.428   1.961 -14.038  1.00  0.00    +0.051 C 
ATOM     22  C   UNL     1      -9.591   0.785 -14.488  1.00  0.00    +0.256 C 
ATOM     23  C   UNL     1     -10.188   3.032 -15.028  1.00  0.00    +0.014 A 
ATOM     24  O   UNL     1      -9.482  -0.308 -13.966  1.00  0.00    -0.269 OA
ATOM     25  N   UNL     1      -8.952   1.204 -15.642  1.00  0.00    -0.321 N 
ATOM     26  C   UNL     1     -10.658   4.326 -15.163  1.00  0.00    +0.050 A 
ATOM     27  C   UNL     1      -9.291   2.510 -15.967  1.00  0.00    +0.049 A 
ATOM     28  C   UNL     1     -10.206   5.069 -16.254  1.00  0.00    +0.123 A 
ATOM     29  C   UNL     1      -8.835   3.234 -17.052  1.00  0.00    +0.030 A 
ATOM     30  C   UNL     1      -9.306   4.540 -17.192  1.00  0.00    +0.041 A 
ATOM     31  H   UNL     1      -8.324   0.608 -16.161  1.00  0.00    +0.170 HD
ATOM     32  F   UNL     1     -10.642   6.327 -16.412  1.00  0.00    -0.207 F 
ENDBRANCH  16  20
ENDBRANCH   9  12
ENDBRANCH   1   8
TORSDOF 7
ENDMDL
MODEL 10
REMARK VINA RESULT:    -8.674      3.950      9.986
REMARK INTER + INTRA:         -11.750
REMARK INTER:                 -10.723
REMARK INTRA:                  -1.027
REMARK UNBOUND:                 0.474
REMARK SMILES CCN(CC)CCNC(=O)c1c(C)[nH]c(/C=C2\C(=O)Nc3ccc(F)cc32)c1C
REMARK SMILES IDX 7 1 6 2 3 3 2 4 1 5 4 6 5 7 8 8 9 9 10 10 11 12 12 13 28 14
REMARK SMILES IDX 14 15 15 16 13 17 29 18 16 20 17 21 18 22 27 23 19 24 20 25
REMARK SMILES IDX 26 26 21 27 24 28 22 29 23 30 25 32
REMARK H PARENT 8 11 14 19 20 31
ROOT
ATOM      1  C   UNL     1      -8.553  -2.263  -9.912  1.00  0.00    +0.131 C 
ENDROOT
BRANCH   1   2
ATOM      2  C   UNL     1      -9.975  -2.261  -9.315  1.00  0.00    +0.105 C 
BRANCH   2   3
ATOM      3  N   UNL     1     -11.097  -2.047 -10.254  1.00  0.00    -0.302 NA
BRANCH   3   4
ATOM      4  C   UNL     1     -11.830  -3.281 -10.584  1.00  0.00    +0.081 C 
ATOM      5  C   UNL     1     -13.313  -3.236 -10.229  1.00  0.00    +0.021 C 
ENDBRANCH   3   4
BRANCH   3   6
ATOM      6  C   UNL     1     -11.996  -0.981  -9.780  1.00  0.00    +0.081 C 
ATOM      7  C   UNL     1     -11.804   0.332 -10.533  1.00  0.00    +0.021 C 
ENDBRANCH   3   6
ENDBRANCH   2   3
ENDBRANCH   1   2
BRANCH   1   8
ATOM      8  N   UNL     1      -8.386  -1.244 -10.929  1.00  0.00    -0.351 N 
ATOM      9  C   UNL     1      -7.816  -1.525 -12.150  1.00  0.00    +0.253 C 
ATOM     10  O   UNL     1      -7.414  -2.642 -12.455  1.00  0.00    -0.269 OA
ATOM     11  H   UNL     1      -8.538  -0.275 -10.687  1.00  0.00    +0.163 HD
BRANCH   9  12
ATOM     12  C   UNL     1      -7.683  -0.361 -13.028  1.00  0.00    +0.063 A 
ATOM     13  C   UNL     1      -6.477   0.261 -13.313  1.00  0.00    +0.025 A 
ATOM     14  C   UNL     1      -8.692   0.349 -13.776  1.00  0.00    -0.013 A 
ATOM     15  N   UNL     1      -6.730   1.323 -14.142  1.00  0.00    -0.358 N 
ATOM     16  C   UNL     1      -8.069   1.411 -14.431  1.00  0.00    +0.043 A 
ATOM     17  C   UNL     1      -5.095  -0.052 -12.862  1.00  0.00    +0.065 C 
ATOM     18  C   UNL     1     -10.141  -0.006 -13.860  1.00  0.00    +0.047 C 
ATOM     19  H   UNL     1      -6.011   1.950 -14.491  1.00  0.00    +0.166 HD
BRANCH  16  20
ATOM     20  C   UNL     1      -8.603   2.429 -15.273  1.00  0.00    +0.041 C 
ATOM     21  C   UNL     1      -8.024   3.104 -16.280  1.00  0.00    +0.051 C 
ATOM     22  C   UNL     1      -6.630   3.025 -16.861  1.00  0.00    +0.256 C 
ATOM     23  C   UNL     1      -8.731   4.140 -17.061  1.00  0.00    +0.014 A 
ATOM     24  O   UNL     1      -5.709   2.307 -16.522  1.00  0.00    -0.269 OA
ATOM     25  N   UNL     1      -6.601   3.957 -17.884  1.00  0.00    -0.321 N 
ATOM     26  C   UNL     1     -10.011   4.662 -17.011  1.00  0.00    +0.050 A 
ATOM     27  C   UNL     1      -7.818   4.614 -18.011  1.00  0.00    +0.049 A 
ATOM     28  C   UNL     1     -10.342   5.658 -17.931  1.00  0.00    +0.123 A 
ATOM     29  C   UNL     1      -8.132   5.599 -18.927  1.00  0.00    +0.030 A 
ATOM     30  C   UNL     1      -9.422   6.127 -18.880  1.00  0.00    +0.041 A 
ATOM     31  H   UNL     1      -5.781   4.116 -18.450  1.00  0.00    +0.170 HD
ATOM     32  F   UNL     1     -11.575   6.183 -17.907  1.00  0.00    -0.207 F 
ENDBRANCH  16  20
ENDBRANCH   9  12
ENDBRANCH   1   8
TORSDOF 7
ENDMDL
