REMARK SMILES CNC(=O)c1cc(Oc2ccc(NC(=O)Nc3ccc(Cl)c(C(F)(F)F)c3)cc2)ccn1
REMARK SMILES IDX 9 1 10 2 11 3 12 4 28 5 29 6 8 7 7 8 5 9 6 10 32 11 31 12
REMARK SMILES IDX 30 13 3 14 2 15 4 16 1 17 13 19 14 20 15 21 16 22 17 25
REMARK SMILES IDX 18 26 27 27 19 28 22 29 20 30 21 31 23 32 24 33 25 34 26 35
REMARK H PARENT 2 18 13 23 16 24
ROOT
ATOM      1  C   UNL     1       1.949   1.002  -0.821  1.00  0.00    +0.127 A 
ATOM      2  C   UNL     1       1.665   0.753   0.522  1.00  0.00    +0.049 A 
ATOM      3  C   UNL     1       0.339   0.577   0.927  1.00  0.00    +0.030 A 
ATOM      4  C   UNL     1      -0.710   0.655  -0.000  1.00  0.00    +0.043 A 
ATOM      5  C   UNL     1      -0.411   0.937  -1.336  1.00  0.00    +0.030 A 
ATOM      6  C   UNL     1       0.914   1.117  -1.744  1.00  0.00    +0.049 A 
ENDROOT
BRANCH   1   7
ATOM      7  O   UNL     1       3.231   1.216  -1.271  1.00  0.00    -0.457 OA
BRANCH   7   8
ATOM      8  C   UNL     1       4.164   0.248  -0.973  1.00  0.00    +0.131 A 
ATOM      9  C   UNL     1       6.361  -0.281  -0.255  1.00  0.00    +0.131 A 
ATOM     10  C   UNL     1       5.405   0.684  -0.528  1.00  0.00    +0.081 A 
ATOM     11  N   UNL     1       6.159  -1.623  -0.414  1.00  0.00    -0.251 NA
ATOM     12  C   UNL     1       4.947  -1.998  -0.873  1.00  0.00    +0.116 A 
ATOM     13  C   UNL     1       3.927  -1.111  -1.169  1.00  0.00    +0.067 A 
BRANCH   9  14
ATOM     14  C   UNL     1       7.713   0.131   0.244  1.00  0.00    +0.269 C 
ATOM     15  N   UNL     1       8.567  -0.922   0.497  1.00  0.00    -0.354 N 
ATOM     16  O   UNL     1       8.009   1.310   0.396  1.00  0.00    -0.268 OA
ATOM     17  C   UNL     1       9.946  -0.727   0.852  1.00  0.00    +0.143 C 
ATOM     18  H   UNL     1       8.229  -1.843   0.229  1.00  0.00    +0.163 HD
ENDBRANCH   9  14
ENDBRANCH   7   8
ENDBRANCH   1   7
BRANCH   4  19
ATOM     19  N   UNL     1      -2.020   0.474   0.490  1.00  0.00    -0.308 N 
ATOM     20  C   UNL     1      -3.181   0.318  -0.254  1.00  0.00    +0.323 C 
ATOM     21  O   UNL     1      -3.226   0.199  -1.470  1.00  0.00    -0.248 OA
ATOM     22  N   UNL     1      -4.287   0.315   0.586  1.00  0.00    -0.308 N 
ATOM     23  H   UNL     1      -2.098   0.272   1.475  1.00  0.00    +0.171 HD
ATOM     24  H   UNL     1      -4.130   0.686   1.511  1.00  0.00    +0.171 HD
BRANCH  22  25
ATOM     25  C   UNL     1      -5.629   0.068   0.232  1.00  0.00    +0.043 A 
ATOM     26  C   UNL     1      -6.030  -0.415  -1.012  1.00  0.00    +0.028 A 
ATOM     27  C   UNL     1      -6.606   0.304   1.209  1.00  0.00    +0.040 A 
ATOM     28  C   UNL     1      -7.384  -0.644  -1.279  1.00  0.00    +0.023 A 
ATOM     29  C   UNL     1      -7.976   0.077   0.955  1.00  0.00    +0.076 A 
ATOM     30  C   UNL     1      -8.352  -0.399  -0.304  1.00  0.00    +0.053 A 
ATOM     31 Cl   UNL     1      -9.998  -0.709  -0.714  1.00  0.00    -0.084 Cl
BRANCH  29  32
ATOM     32  C   UNL     1      -8.993   0.348   2.030  1.00  0.00    +0.417 C 
ATOM     33  F   UNL     1      -9.696  -0.760   2.392  1.00  0.00    -0.166 F 
ATOM     34  F   UNL     1      -9.907   1.292   1.679  1.00  0.00    -0.166 F 
ATOM     35  F   UNL     1      -8.429   0.807   3.187  1.00  0.00    -0.166 F 
ENDBRANCH  29  32
ENDBRANCH  22  25
ENDBRANCH   4  19
TORSDOF 6
