MODEL 1
REMARK VINA RESULT:    -8.787      0.000      0.000
REMARK INTER + INTRA:         -12.928
REMARK INTER:                 -11.869
REMARK INTRA:                  -1.059
REMARK UNBOUND:                -1.059
REMARK SMILES CNC(=O)c1cc(Oc2ccc(NC(=O)Nc3ccc(Cl)c(C(F)(F)F)c3)cc2)ccn1
REMARK SMILES IDX 9 1 10 2 11 3 12 4 28 5 29 6 8 7 7 8 5 9 6 10 32 11 31 12
REMARK SMILES IDX 30 13 3 14 2 15 4 16 1 17 13 19 14 20 15 21 16 22 17 25
REMARK SMILES IDX 18 26 27 27 19 28 22 29 20 30 21 31 23 32 24 33 25 34 26 35
REMARK H PARENT 2 18 13 23 16 24
ROOT
ATOM      1  C   UNL     1     -13.683  -0.904  -9.817  1.00  0.00    +0.127 A 
ATOM      2  C   UNL     1     -14.136   0.361 -10.194  1.00  0.00    +0.049 A 
ATOM      3  C   UNL     1     -13.276   1.229 -10.872  1.00  0.00    +0.030 A 
ATOM      4  C   UNL     1     -11.960   0.848 -11.169  1.00  0.00    +0.043 A 
ATOM      5  C   UNL     1     -11.512  -0.410 -10.756  1.00  0.00    +0.030 A 
ATOM      6  C   UNL     1     -12.369  -1.280 -10.075  1.00  0.00    +0.049 A 
ENDROOT
BRANCH   1   7
ATOM      7  O   UNL     1     -14.474  -1.787  -9.120  1.00  0.00    -0.457 OA
BRANCH   7   8
ATOM      8  C   UNL     1     -14.744  -1.476  -7.806  1.00  0.00    +0.131 A 
ATOM      9  C   UNL     1     -16.301  -0.688  -6.200  1.00  0.00    +0.131 A 
ATOM     10  C   UNL     1     -16.028  -1.034  -7.514  1.00  0.00    +0.081 A 
ATOM     11  N   UNL     1     -15.384  -0.742  -5.189  1.00  0.00    -0.251 NA
ATOM     12  C   UNL     1     -14.143  -1.152  -5.525  1.00  0.00    +0.116 A 
ATOM     13  C   UNL     1     -13.775  -1.522  -6.806  1.00  0.00    +0.067 A 
BRANCH   9  14
ATOM     14  C   UNL     1     -17.675  -0.220  -5.824  1.00  0.00    +0.269 C 
ATOM     15  N   UNL     1     -18.661  -0.591  -6.714  1.00  0.00    -0.354 N 
ATOM     16  O   UNL     1     -17.875   0.427  -4.803  1.00  0.00    -0.268 OA
ATOM     17  C   UNL     1     -20.056  -0.353  -6.460  1.00  0.00    +0.143 C 
ATOM     18  H   UNL     1     -18.373  -1.215  -7.463  1.00  0.00    +0.163 HD
ENDBRANCH   9  14
ENDBRANCH   7   8
ENDBRANCH   1   7
BRANCH   4  19
ATOM     19  N   UNL     1     -11.154   1.785 -11.848  1.00  0.00    -0.308 N 
ATOM     20  C   UNL     1     -10.946   1.879 -13.217  1.00  0.00    +0.323 C 
ATOM     21  O   UNL     1     -11.533   1.221 -14.064  1.00  0.00    -0.248 OA
ATOM     22  N   UNL     1      -9.973   2.834 -13.485  1.00  0.00    -0.308 N 
ATOM     23  H   UNL     1     -10.828   2.565 -11.298  1.00  0.00    +0.171 HD
ATOM     24  H   UNL     1      -9.395   3.096 -12.701  1.00  0.00    +0.171 HD
BRANCH  22  25
ATOM     25  C   UNL     1      -9.562   3.303 -14.749  1.00  0.00    +0.043 A 
ATOM     26  C   UNL     1      -8.427   2.847 -15.418  1.00  0.00    +0.028 A 
ATOM     27  C   UNL     1     -10.365   4.270 -15.369  1.00  0.00    +0.040 A 
ATOM     28  C   UNL     1      -8.095   3.358 -16.677  1.00  0.00    +0.023 A 
ATOM     29  C   UNL     1     -10.043   4.794 -16.640  1.00  0.00    +0.076 A 
ATOM     30  C   UNL     1      -8.895   4.326 -17.285  1.00  0.00    +0.053 A 
ATOM     31 Cl   UNL     1      -8.415   4.902 -18.838  1.00  0.00    -0.084 Cl
BRANCH  29  32
ATOM     32  C   UNL     1     -10.930   5.834 -17.268  1.00  0.00    +0.417 C 
ATOM     33  F   UNL     1     -11.367   5.485 -18.509  1.00  0.00    -0.166 F 
ATOM     34  F   UNL     1     -10.329   7.048 -17.395  1.00  0.00    -0.166 F 
ATOM     35  F   UNL     1     -12.064   6.069 -16.543  1.00  0.00    -0.166 F 
ENDBRANCH  29  32
ENDBRANCH  22  25
ENDBRANCH   4  19
TORSDOF 6
ENDMDL
MODEL 2
REMARK VINA RESULT:    -8.551      7.692      9.863
REMARK INTER + INTRA:         -12.609
REMARK INTER:                 -11.570
REMARK INTRA:                  -1.039
REMARK UNBOUND:                -1.059
REMARK SMILES CNC(=O)c1cc(Oc2ccc(NC(=O)Nc3ccc(Cl)c(C(F)(F)F)c3)cc2)ccn1
REMARK SMILES IDX 9 1 10 2 11 3 12 4 28 5 29 6 8 7 7 8 5 9 6 10 32 11 31 12
REMARK SMILES IDX 30 13 3 14 2 15 4 16 1 17 13 19 14 20 15 21 16 22 17 25
REMARK SMILES IDX 18 26 27 27 19 28 22 29 20 30 21 31 23 32 24 33 25 34 26 35
REMARK H PARENT 2 18 13 23 16 24
ROOT
ATOM      1  C   UNL     1      -7.685  -0.307 -14.505  1.00  0.00    +0.127 A 
ATOM      2  C   UNL     1      -7.945  -0.350 -15.875  1.00  0.00    +0.049 A 
ATOM      3  C   UNL     1      -8.576   0.734 -16.493  1.00  0.00    +0.030 A 
ATOM      4  C   UNL     1      -8.956   1.861 -15.750  1.00  0.00    +0.043 A 
ATOM      5  C   UNL     1      -8.717   1.874 -14.373  1.00  0.00    +0.030 A 
ATOM      6  C   UNL     1      -8.089   0.791 -13.751  1.00  0.00    +0.049 A 
ENDROOT
BRANCH   1   7
ATOM      7  O   UNL     1      -7.098  -1.357 -13.838  1.00  0.00    -0.457 OA
BRANCH   7   8
ATOM      8  C   UNL     1      -5.872  -1.780 -14.302  1.00  0.00    +0.131 A 
ATOM      9  C   UNL     1      -4.562  -3.524 -15.231  1.00  0.00    +0.131 A 
ATOM     10  C   UNL     1      -5.797  -3.078 -14.791  1.00  0.00    +0.081 A 
ATOM     11  N   UNL     1      -3.421  -2.772 -15.195  1.00  0.00    -0.251 NA
ATOM     12  C   UNL     1      -3.537  -1.528 -14.688  1.00  0.00    +0.116 A 
ATOM     13  C   UNL     1      -4.727  -0.991 -14.228  1.00  0.00    +0.067 A 
BRANCH   9  14
ATOM     14  C   UNL     1      -4.425  -4.910 -15.785  1.00  0.00    +0.269 C 
ATOM     15  N   UNL     1      -5.394  -5.790 -15.351  1.00  0.00    -0.354 N 
ATOM     16  O   UNL     1      -3.525  -5.205 -16.562  1.00  0.00    -0.268 OA
ATOM     17  C   UNL     1      -5.512  -7.124 -15.873  1.00  0.00    +0.143 C 
ATOM     18  H   UNL     1      -6.141  -5.388 -14.791  1.00  0.00    +0.163 HD
ENDBRANCH   9  14
ENDBRANCH   7   8
ENDBRANCH   1   7
BRANCH   4  19
ATOM     19  N   UNL     1      -9.594   2.908 -16.446  1.00  0.00    -0.308 N 
ATOM     20  C   UNL     1      -9.033   4.110 -16.854  1.00  0.00    +0.323 C 
ATOM     21  O   UNL     1      -7.848   4.398 -16.767  1.00  0.00    -0.248 OA
ATOM     22  N   UNL     1     -10.015   4.940 -17.377  1.00  0.00    -0.308 N 
ATOM     23  H   UNL     1     -10.501   2.693 -16.831  1.00  0.00    +0.171 HD
ATOM     24  H   UNL     1     -10.964   4.691 -17.143  1.00  0.00    +0.171 HD
BRANCH  22  25
ATOM     25  C   UNL     1      -9.835   6.193 -17.998  1.00  0.00    +0.043 A 
ATOM     26  C   UNL     1      -9.374   7.331 -17.338  1.00  0.00    +0.028 A 
ATOM     27  C   UNL     1     -10.117   6.279 -19.369  1.00  0.00    +0.040 A 
ATOM     28  C   UNL     1      -9.213   8.534 -18.032  1.00  0.00    +0.023 A 
ATOM     29  C   UNL     1      -9.958   7.486 -20.083  1.00  0.00    +0.076 A 
ATOM     30  C   UNL     1      -9.503   8.614 -19.394  1.00  0.00    +0.053 A 
ATOM     31 Cl   UNL     1      -9.275  10.135 -20.174  1.00  0.00    -0.084 Cl
BRANCH  29  32
ATOM     32  C   UNL     1     -10.276   7.536 -21.552  1.00  0.00    +0.417 C 
ATOM     33  F   UNL     1     -11.229   8.458 -21.861  1.00  0.00    -0.166 F 
ATOM     34  F   UNL     1     -10.709   6.346 -22.049  1.00  0.00    -0.166 F 
ATOM     35  F   UNL     1      -9.194   7.871 -22.316  1.00  0.00    -0.166 F 
ENDBRANCH  29  32
ENDBRANCH  22  25
ENDBRANCH   4  19
TORSDOF 6
ENDMDL
MODEL 3
REMARK VINA RESULT:    -8.404      6.425      8.095
REMARK INTER + INTRA:         -12.410
REMARK INTER:                 -11.519
REMARK INTRA:                  -0.891
REMARK UNBOUND:                -1.059
REMARK SMILES CNC(=O)c1cc(Oc2ccc(NC(=O)Nc3ccc(Cl)c(C(F)(F)F)c3)cc2)ccn1
REMARK SMILES IDX 9 1 10 2 11 3 12 4 28 5 29 6 8 7 7 8 5 9 6 10 32 11 31 12
REMARK SMILES IDX 30 13 3 14 2 15 4 16 1 17 13 19 14 20 15 21 16 22 17 25
REMARK SMILES IDX 18 26 27 27 19 28 22 29 20 30 21 31 23 32 24 33 25 34 26 35
REMARK H PARENT 2 18 13 23 16 24
ROOT
ATOM      1  C   UNL     1      -7.665  -0.498 -14.864  1.00  0.00    +0.127 A 
ATOM      2  C   UNL     1      -7.371  -0.128 -16.177  1.00  0.00    +0.049 A 
ATOM      3  C   UNL     1      -8.028   0.963 -16.751  1.00  0.00    +0.030 A 
ATOM      4  C   UNL     1      -8.986   1.686 -16.026  1.00  0.00    +0.043 A 
ATOM      5  C   UNL     1      -9.292   1.283 -14.723  1.00  0.00    +0.030 A 
ATOM      6  C   UNL     1      -8.639   0.190 -14.146  1.00  0.00    +0.049 A 
ENDROOT
BRANCH   1   7
ATOM      7  O   UNL     1      -7.074  -1.582 -14.258  1.00  0.00    -0.457 OA
BRANCH   7   8
ATOM      8  C   UNL     1      -6.212  -1.319 -13.217  1.00  0.00    +0.131 A 
ATOM      9  C   UNL     1      -5.813  -1.321 -10.880  1.00  0.00    +0.131 A 
ATOM     10  C   UNL     1      -6.661  -1.611 -11.937  1.00  0.00    +0.081 A 
ATOM     11  N   UNL     1      -4.579  -0.754 -11.025  1.00  0.00    -0.251 NA
ATOM     12  C   UNL     1      -4.195  -0.464 -12.285  1.00  0.00    +0.116 A 
ATOM     13  C   UNL     1      -4.968  -0.719 -13.404  1.00  0.00    +0.067 A 
BRANCH   9  14
ATOM     14  C   UNL     1      -6.240  -1.630  -9.477  1.00  0.00    +0.269 C 
ATOM     15  N   UNL     1      -7.469  -1.109  -9.132  1.00  0.00    -0.354 N 
ATOM     16  O   UNL     1      -5.540  -2.299  -8.726  1.00  0.00    -0.268 OA
ATOM     17  C   UNL     1      -8.109  -1.408  -7.880  1.00  0.00    +0.143 C 
ATOM     18  H   UNL     1      -7.990  -0.663  -9.883  1.00  0.00    +0.163 HD
ENDBRANCH   9  14
ENDBRANCH   7   8
ENDBRANCH   1   7
BRANCH   4  19
ATOM     19  N   UNL     1      -9.610   2.768 -16.680  1.00  0.00    -0.308 N 
ATOM     20  C   UNL     1      -9.037   3.984 -17.027  1.00  0.00    +0.323 C 
ATOM     21  O   UNL     1      -7.851   4.259 -16.915  1.00  0.00    -0.248 OA
ATOM     22  N   UNL     1     -10.009   4.843 -17.522  1.00  0.00    -0.308 N 
ATOM     23  H   UNL     1     -10.514   2.577 -17.084  1.00  0.00    +0.171 HD
ATOM     24  H   UNL     1     -10.962   4.590 -17.309  1.00  0.00    +0.171 HD
BRANCH  22  25
ATOM     25  C   UNL     1      -9.814   6.122 -18.084  1.00  0.00    +0.043 A 
ATOM     26  C   UNL     1      -9.333   7.219 -17.373  1.00  0.00    +0.028 A 
ATOM     27  C   UNL     1     -10.104   6.277 -19.446  1.00  0.00    +0.040 A 
ATOM     28  C   UNL     1      -9.157   8.453 -18.010  1.00  0.00    +0.023 A 
ATOM     29  C   UNL     1      -9.932   7.515 -20.103  1.00  0.00    +0.076 A 
ATOM     30  C   UNL     1      -9.456   8.602 -19.365  1.00  0.00    +0.053 A 
ATOM     31 Cl   UNL     1      -9.210  10.155 -20.073  1.00  0.00    -0.084 Cl
BRANCH  29  32
ATOM     32  C   UNL     1     -10.259   7.640 -21.566  1.00  0.00    +0.417 C 
ATOM     33  F   UNL     1     -10.658   6.465 -22.126  1.00  0.00    -0.166 F 
ATOM     34  F   UNL     1      -9.218   8.094 -22.313  1.00  0.00    -0.166 F 
ATOM     35  F   UNL     1     -11.281   8.515 -21.805  1.00  0.00    -0.166 F 
ENDBRANCH  29  32
ENDBRANCH  22  25
ENDBRANCH   4  19
TORSDOF 6
ENDMDL
MODEL 4
REMARK VINA RESULT:    -8.304      1.896      2.359
REMARK INTER + INTRA:         -12.275
REMARK INTER:                 -11.250
REMARK INTRA:                  -1.025
REMARK UNBOUND:                -1.059
REMARK SMILES CNC(=O)c1cc(Oc2ccc(NC(=O)Nc3ccc(Cl)c(C(F)(F)F)c3)cc2)ccn1
REMARK SMILES IDX 9 1 10 2 11 3 12 4 28 5 29 6 8 7 7 8 5 9 6 10 32 11 31 12
REMARK SMILES IDX 30 13 3 14 2 15 4 16 1 17 13 19 14 20 15 21 16 22 17 25
REMARK SMILES IDX 18 26 27 27 19 28 22 29 20 30 21 31 23 32 24 33 25 34 26 35
REMARK H PARENT 2 18 13 23 16 24
ROOT
ATOM      1  C   UNL     1     -13.617  -1.022  -9.803  1.00  0.00    +0.127 A 
ATOM      2  C   UNL     1     -14.039   0.276 -10.094  1.00  0.00    +0.049 A 
ATOM      3  C   UNL     1     -13.177   1.150 -10.762  1.00  0.00    +0.030 A 
ATOM      4  C   UNL     1     -11.889   0.741 -11.135  1.00  0.00    +0.043 A 
ATOM      5  C   UNL     1     -11.470  -0.552 -10.807  1.00  0.00    +0.030 A 
ATOM      6  C   UNL     1     -12.328  -1.428 -10.137  1.00  0.00    +0.049 A 
ENDROOT
BRANCH   1   7
ATOM      7  O   UNL     1     -14.409  -1.914  -9.119  1.00  0.00    -0.457 OA
BRANCH   7   8
ATOM      8  C   UNL     1     -14.702  -1.608  -7.809  1.00  0.00    +0.131 A 
ATOM      9  C   UNL     1     -16.281  -0.810  -6.230  1.00  0.00    +0.131 A 
ATOM     10  C   UNL     1     -15.986  -1.151  -7.540  1.00  0.00    +0.081 A 
ATOM     11  N   UNL     1     -15.385  -0.883  -5.201  1.00  0.00    -0.251 NA
ATOM     12  C   UNL     1     -14.143  -1.308  -5.514  1.00  0.00    +0.116 A 
ATOM     13  C   UNL     1     -13.754  -1.674  -6.790  1.00  0.00    +0.067 A 
BRANCH   9  14
ATOM     14  C   UNL     1     -17.656  -0.327  -5.879  1.00  0.00    +0.269 C 
ATOM     15  N   UNL     1     -18.650  -0.799  -6.709  1.00  0.00    -0.354 N 
ATOM     16  O   UNL     1     -17.850   0.417  -4.925  1.00  0.00    -0.268 OA
ATOM     17  C   UNL     1     -20.044  -0.557  -6.456  1.00  0.00    +0.143 C 
ATOM     18  H   UNL     1     -18.364  -1.490  -7.397  1.00  0.00    +0.163 HD
ENDBRANCH   9  14
ENDBRANCH   7   8
ENDBRANCH   1   7
BRANCH   4  19
ATOM     19  N   UNL     1     -11.078   1.685 -11.798  1.00  0.00    -0.308 N 
ATOM     20  C   UNL     1     -10.917   1.839 -13.168  1.00  0.00    +0.323 C 
ATOM     21  O   UNL     1     -11.554   1.241 -14.023  1.00  0.00    -0.248 OA
ATOM     22  N   UNL     1      -9.925   2.776 -13.427  1.00  0.00    -0.308 N 
ATOM     23  H   UNL     1     -10.709   2.428 -11.225  1.00  0.00    +0.171 HD
ATOM     24  H   UNL     1      -9.311   2.983 -12.653  1.00  0.00    +0.171 HD
BRANCH  22  25
ATOM     25  C   UNL     1      -9.544   3.294 -14.682  1.00  0.00    +0.043 A 
ATOM     26  C   UNL     1     -10.348   4.127 -15.457  1.00  0.00    +0.028 A 
ATOM     27  C   UNL     1      -8.267   2.961 -15.154  1.00  0.00    +0.040 A 
ATOM     28  C   UNL     1      -9.889   4.607 -16.688  1.00  0.00    +0.023 A 
ATOM     29  C   UNL     1      -7.789   3.438 -16.394  1.00  0.00    +0.076 A 
ATOM     30  C   UNL     1      -8.619   4.265 -17.156  1.00  0.00    +0.053 A 
ATOM     31 Cl   UNL     1      -8.130   4.900 -18.682  1.00  0.00    -0.084 Cl
BRANCH  29  32
ATOM     32  C   UNL     1      -6.414   3.053 -16.866  1.00  0.00    +0.417 C 
ATOM     33  F   UNL     1      -6.425   2.370 -18.043  1.00  0.00    -0.166 F 
ATOM     34  F   UNL     1      -5.736   2.281 -15.974  1.00  0.00    -0.166 F 
ATOM     35  F   UNL     1      -5.609   4.135 -17.088  1.00  0.00    -0.166 F 
ENDBRANCH  29  32
ENDBRANCH  22  25
ENDBRANCH   4  19
TORSDOF 6
ENDMDL
MODEL 5
REMARK VINA RESULT:    -8.303      1.381      2.848
REMARK INTER + INTRA:         -12.275
REMARK INTER:                 -11.591
REMARK INTRA:                  -0.683
REMARK UNBOUND:                -1.059
REMARK SMILES CNC(=O)c1cc(Oc2ccc(NC(=O)Nc3ccc(Cl)c(C(F)(F)F)c3)cc2)ccn1
REMARK SMILES IDX 9 1 10 2 11 3 12 4 28 5 29 6 8 7 7 8 5 9 6 10 32 11 31 12
REMARK SMILES IDX 30 13 3 14 2 15 4 16 1 17 13 19 14 20 15 21 16 22 17 25
REMARK SMILES IDX 18 26 27 27 19 28 22 29 20 30 21 31 23 32 24 33 25 34 26 35
REMARK H PARENT 2 18 13 23 16 24
ROOT
ATOM      1  C   UNL     1     -13.991  -0.487  -9.833  1.00  0.00    +0.127 A 
ATOM      2  C   UNL     1     -12.678  -0.925 -10.005  1.00  0.00    +0.049 A 
ATOM      3  C   UNL     1     -11.765  -0.118 -10.691  1.00  0.00    +0.030 A 
ATOM      4  C   UNL     1     -12.156   1.122 -11.214  1.00  0.00    +0.043 A 
ATOM      5  C   UNL     1     -13.484   1.532 -11.060  1.00  0.00    +0.030 A 
ATOM      6  C   UNL     1     -14.401   0.726 -10.377  1.00  0.00    +0.049 A 
ENDROOT
BRANCH   1   7
ATOM      7  O   UNL     1     -14.940  -1.253  -9.196  1.00  0.00    -0.457 OA
BRANCH   7   8
ATOM      8  C   UNL     1     -15.083  -1.064  -7.839  1.00  0.00    +0.131 A 
ATOM      9  C   UNL     1     -14.050  -0.770  -5.725  1.00  0.00    +0.131 A 
ATOM     10  C   UNL     1     -13.918  -0.929  -7.095  1.00  0.00    +0.081 A 
ATOM     11  N   UNL     1     -15.249  -0.755  -5.070  1.00  0.00    -0.251 NA
ATOM     12  C   UNL     1     -16.352  -0.915  -5.830  1.00  0.00    +0.116 A 
ATOM     13  C   UNL     1     -16.323  -1.076  -7.204  1.00  0.00    +0.067 A 
BRANCH   9  14
ATOM     14  C   UNL     1     -12.828  -0.604  -4.874  1.00  0.00    +0.269 C 
ATOM     15  N   UNL     1     -11.695  -1.196  -5.391  1.00  0.00    -0.354 N 
ATOM     16  O   UNL     1     -12.860   0.019  -3.819  1.00  0.00    -0.268 OA
ATOM     17  C   UNL     1     -10.399  -1.034  -4.791  1.00  0.00    +0.143 C 
ATOM     18  H   UNL     1     -11.785  -1.590  -6.324  1.00  0.00    +0.163 HD
ENDBRANCH   9  14
ENDBRANCH   7   8
ENDBRANCH   1   7
BRANCH   4  19
ATOM     19  N   UNL     1     -11.178   1.872 -11.899  1.00  0.00    -0.308 N 
ATOM     20  C   UNL     1     -11.103   2.105 -13.265  1.00  0.00    +0.323 C 
ATOM     21  O   UNL     1     -11.954   1.782 -14.081  1.00  0.00    -0.248 OA
ATOM     22  N   UNL     1      -9.918   2.761 -13.571  1.00  0.00    -0.308 N 
ATOM     23  H   UNL     1     -10.568   2.432 -11.323  1.00  0.00    +0.171 HD
ATOM     24  H   UNL     1      -9.205   2.722 -12.859  1.00  0.00    +0.171 HD
BRANCH  22  25
ATOM     25  C   UNL     1      -9.522   3.273 -14.824  1.00  0.00    +0.043 A 
ATOM     26  C   UNL     1      -8.405   2.829 -15.528  1.00  0.00    +0.028 A 
ATOM     27  C   UNL     1     -10.325   4.270 -15.394  1.00  0.00    +0.040 A 
ATOM     28  C   UNL     1      -8.088   3.383 -16.773  1.00  0.00    +0.023 A 
ATOM     29  C   UNL     1     -10.019   4.838 -16.650  1.00  0.00    +0.076 A 
ATOM     30  C   UNL     1      -8.887   4.381 -17.331  1.00  0.00    +0.053 A 
ATOM     31 Cl   UNL     1      -8.427   5.009 -18.870  1.00  0.00    -0.084 Cl
BRANCH  29  32
ATOM     32  C   UNL     1     -10.904   5.910 -17.224  1.00  0.00    +0.417 C 
ATOM     33  F   UNL     1     -10.264   7.100 -17.388  1.00  0.00    -0.166 F 
ATOM     34  F   UNL     1     -12.004   6.162 -16.465  1.00  0.00    -0.166 F 
ATOM     35  F   UNL     1     -11.386   5.590 -18.462  1.00  0.00    -0.166 F 
ENDBRANCH  29  32
ENDBRANCH  22  25
ENDBRANCH   4  19
TORSDOF 6
ENDMDL
MODEL 6
REMARK VINA RESULT:    -8.252      2.617      4.043
REMARK INTER + INTRA:         -12.206
REMARK INTER:                 -11.629
REMARK INTRA:                  -0.577
REMARK UNBOUND:                -1.059
REMARK SMILES CNC(=O)c1cc(Oc2ccc(NC(=O)Nc3ccc(Cl)c(C(F)(F)F)c3)cc2)ccn1
REMARK SMILES IDX 9 1 10 2 11 3 12 4 28 5 29 6 8 7 7 8 5 9 6 10 32 11 31 12
REMARK SMILES IDX 30 13 3 14 2 15 4 16 1 17 13 19 14 20 15 21 16 22 17 25
REMARK SMILES IDX 18 26 27 27 19 28 22 29 20 30 21 31 23 32 24 33 25 34 26 35
REMARK H PARENT 2 18 13 23 16 24
ROOT
ATOM      1  C   UNL     1     -13.781  -0.701  -9.854  1.00  0.00    +0.127 A 
ATOM      2  C   UNL     1     -12.478  -1.104 -10.148  1.00  0.00    +0.049 A 
ATOM      3  C   UNL     1     -11.625  -0.236 -10.834  1.00  0.00    +0.030 A 
ATOM      4  C   UNL     1     -12.065   1.033 -11.237  1.00  0.00    +0.043 A 
ATOM      5  C   UNL     1     -13.384   1.408 -10.963  1.00  0.00    +0.030 A 
ATOM      6  C   UNL     1     -14.241   0.541 -10.280  1.00  0.00    +0.049 A 
ENDROOT
BRANCH   1   7
ATOM      7  O   UNL     1     -14.675  -1.525  -9.210  1.00  0.00    -0.457 OA
BRANCH   7   8
ATOM      8  C   UNL     1     -14.155  -2.633  -8.579  1.00  0.00    +0.131 A 
ATOM      9  C   UNL     1     -13.348  -4.856  -8.748  1.00  0.00    +0.131 A 
ATOM     10  C   UNL     1     -13.842  -3.725  -9.378  1.00  0.00    +0.081 A 
ATOM     11  N   UNL     1     -13.169  -4.963  -7.398  1.00  0.00    -0.251 NA
ATOM     12  C   UNL     1     -13.511  -3.886  -6.660  1.00  0.00    +0.116 A 
ATOM     13  C   UNL     1     -14.008  -2.711  -7.196  1.00  0.00    +0.067 A 
BRANCH   9  14
ATOM     14  C   UNL     1     -12.977  -6.059  -9.563  1.00  0.00    +0.269 C 
ATOM     15  N   UNL     1     -12.171  -6.962  -8.902  1.00  0.00    -0.354 N 
ATOM     16  O   UNL     1     -13.379  -6.205 -10.711  1.00  0.00    -0.268 OA
ATOM     17  C   UNL     1     -11.820  -8.237  -9.465  1.00  0.00    +0.143 C 
ATOM     18  H   UNL     1     -11.998  -6.767  -7.919  1.00  0.00    +0.163 HD
ENDBRANCH   9  14
ENDBRANCH   7   8
ENDBRANCH   1   7
BRANCH   4  19
ATOM     19  N   UNL     1     -11.146   1.845 -11.933  1.00  0.00    -0.308 N 
ATOM     20  C   UNL     1     -11.044   2.012 -13.307  1.00  0.00    +0.323 C 
ATOM     21  O   UNL     1     -11.825   1.558 -14.130  1.00  0.00    -0.248 OA
ATOM     22  N   UNL     1      -9.924   2.774 -13.611  1.00  0.00    -0.308 N 
ATOM     23  H   UNL     1     -10.620   2.496 -11.370  1.00  0.00    +0.171 HD
ATOM     24  H   UNL     1      -9.237   2.849 -12.875  1.00  0.00    +0.171 HD
BRANCH  22  25
ATOM     25  C   UNL     1      -9.537   3.258 -14.877  1.00  0.00    +0.043 A 
ATOM     26  C   UNL     1      -8.447   2.771 -15.597  1.00  0.00    +0.028 A 
ATOM     27  C   UNL     1     -10.319   4.273 -15.445  1.00  0.00    +0.040 A 
ATOM     28  C   UNL     1      -8.137   3.300 -16.855  1.00  0.00    +0.023 A 
ATOM     29  C   UNL     1     -10.019   4.816 -16.713  1.00  0.00    +0.076 A 
ATOM     30  C   UNL     1      -8.916   4.317 -17.410  1.00  0.00    +0.053 A 
ATOM     31 Cl   UNL     1      -8.466   4.911 -18.965  1.00  0.00    -0.084 Cl
BRANCH  29  32
ATOM     32  C   UNL     1     -10.882   5.909 -17.284  1.00  0.00    +0.417 C 
ATOM     33  F   UNL     1     -10.246   7.110 -17.355  1.00  0.00    -0.166 F 
ATOM     34  F   UNL     1     -12.025   6.115 -16.576  1.00  0.00    -0.166 F 
ATOM     35  F   UNL     1     -11.292   5.645 -18.560  1.00  0.00    -0.166 F 
ENDBRANCH  29  32
ENDBRANCH  22  25
ENDBRANCH   4  19
TORSDOF 6
ENDMDL
MODEL 7
REMARK VINA RESULT:    -8.112      3.649      5.028
REMARK INTER + INTRA:         -12.017
REMARK INTER:                 -11.951
REMARK INTRA:                  -0.066
REMARK UNBOUND:                -1.059
REMARK SMILES CNC(=O)c1cc(Oc2ccc(NC(=O)Nc3ccc(Cl)c(C(F)(F)F)c3)cc2)ccn1
REMARK SMILES IDX 9 1 10 2 11 3 12 4 28 5 29 6 8 7 7 8 5 9 6 10 32 11 31 12
REMARK SMILES IDX 30 13 3 14 2 15 4 16 1 17 13 19 14 20 15 21 16 22 17 25
REMARK SMILES IDX 18 26 27 27 19 28 22 29 20 30 21 31 23 32 24 33 25 34 26 35
REMARK H PARENT 2 18 13 23 16 24
ROOT
ATOM      1  C   UNL     1     -13.100  -0.078  -9.941  1.00  0.00    +0.127 A 
ATOM      2  C   UNL     1     -14.137   0.774 -10.324  1.00  0.00    +0.049 A 
ATOM      3  C   UNL     1     -13.901   1.761 -11.285  1.00  0.00    +0.030 A 
ATOM      4  C   UNL     1     -12.632   1.909 -11.863  1.00  0.00    +0.043 A 
ATOM      5  C   UNL     1     -11.597   1.069 -11.445  1.00  0.00    +0.030 A 
ATOM      6  C   UNL     1     -11.828   0.083 -10.481  1.00  0.00    +0.049 A 
ENDROOT
BRANCH   1   7
ATOM      7  O   UNL     1     -13.266  -1.045  -8.977  1.00  0.00    -0.457 OA
BRANCH   7   8
ATOM      8  C   UNL     1     -12.896  -2.328  -9.313  1.00  0.00    +0.131 A 
ATOM      9  C   UNL     1     -11.281  -4.059  -9.185  1.00  0.00    +0.131 A 
ATOM     10  C   UNL     1     -11.677  -2.781  -8.827  1.00  0.00    +0.081 A 
ATOM     11  N   UNL     1     -12.007  -4.884  -9.996  1.00  0.00    -0.251 NA
ATOM     12  C   UNL     1     -13.172  -4.392 -10.466  1.00  0.00    +0.116 A 
ATOM     13  C   UNL     1     -13.654  -3.131 -10.162  1.00  0.00    +0.067 A 
BRANCH   9  14
ATOM     14  C   UNL     1      -9.982  -4.607  -8.675  1.00  0.00    +0.269 C 
ATOM     15  N   UNL     1      -9.335  -3.783  -7.778  1.00  0.00    -0.354 N 
ATOM     16  O   UNL     1      -9.560  -5.699  -9.036  1.00  0.00    -0.268 OA
ATOM     17  C   UNL     1      -8.147  -4.189  -7.078  1.00  0.00    +0.143 C 
ATOM     18  H   UNL     1      -9.846  -2.953  -7.487  1.00  0.00    +0.163 HD
ENDBRANCH   9  14
ENDBRANCH   7   8
ENDBRANCH   1   7
BRANCH   4  19
ATOM     19  N   UNL     1     -12.474   2.934 -12.819  1.00  0.00    -0.308 N 
ATOM     20  C   UNL     1     -11.517   3.008 -13.821  1.00  0.00    +0.323 C 
ATOM     21  O   UNL     1     -10.722   2.122 -14.100  1.00  0.00    -0.248 OA
ATOM     22  N   UNL     1     -11.594   4.237 -14.463  1.00  0.00    -0.308 N 
ATOM     23  H   UNL     1     -13.233   3.596 -12.886  1.00  0.00    +0.171 HD
ATOM     24  H   UNL     1     -12.098   4.955 -13.965  1.00  0.00    +0.171 HD
BRANCH  22  25
ATOM     25  C   UNL     1     -10.874   4.654 -15.601  1.00  0.00    +0.043 A 
ATOM     26  C   UNL     1     -11.338   5.602 -16.512  1.00  0.00    +0.028 A 
ATOM     27  C   UNL     1      -9.607   4.091 -15.804  1.00  0.00    +0.040 A 
ATOM     28  C   UNL     1     -10.555   5.969 -17.611  1.00  0.00    +0.023 A 
ATOM     29  C   UNL     1      -8.805   4.451 -16.908  1.00  0.00    +0.076 A 
ATOM     30  C   UNL     1      -9.298   5.397 -17.811  1.00  0.00    +0.053 A 
ATOM     31 Cl   UNL     1      -8.396   5.906 -19.190  1.00  0.00    -0.084 Cl
BRANCH  29  32
ATOM     32  C   UNL     1      -7.452   3.818 -17.091  1.00  0.00    +0.417 C 
ATOM     33  F   UNL     1      -7.093   3.016 -16.051  1.00  0.00    -0.166 F 
ATOM     34  F   UNL     1      -6.451   4.726 -17.247  1.00  0.00    -0.166 F 
ATOM     35  F   UNL     1      -7.388   3.019 -18.197  1.00  0.00    -0.166 F 
ENDBRANCH  29  32
ENDBRANCH  22  25
ENDBRANCH   4  19
TORSDOF 6
ENDMDL
MODEL 8
REMARK VINA RESULT:    -8.100      5.671     11.759
REMARK INTER + INTRA:         -11.999
REMARK INTER:                 -11.491
REMARK INTRA:                  -0.509
REMARK UNBOUND:                -1.059
REMARK SMILES CNC(=O)c1cc(Oc2ccc(NC(=O)Nc3ccc(Cl)c(C(F)(F)F)c3)cc2)ccn1
REMARK SMILES IDX 9 1 10 2 11 3 12 4 28 5 29 6 8 7 7 8 5 9 6 10 32 11 31 12
REMARK SMILES IDX 30 13 3 14 2 15 4 16 1 17 13 19 14 20 15 21 16 22 17 25
REMARK SMILES IDX 18 26 27 27 19 28 22 29 20 30 21 31 23 32 24 33 25 34 26 35
REMARK H PARENT 2 18 13 23 16 24
ROOT
ATOM      1  C   UNL     1      -9.913   3.050 -15.328  1.00  0.00    +0.127 A 
ATOM      2  C   UNL     1     -10.107   1.779 -14.786  1.00  0.00    +0.049 A 
ATOM      3  C   UNL     1     -11.175   1.556 -13.912  1.00  0.00    +0.030 A 
ATOM      4  C   UNL     1     -12.048   2.597 -13.567  1.00  0.00    +0.043 A 
ATOM      5  C   UNL     1     -11.820   3.872 -14.093  1.00  0.00    +0.030 A 
ATOM      6  C   UNL     1     -10.752   4.099 -14.965  1.00  0.00    +0.049 A 
ENDROOT
BRANCH   1   7
ATOM      7  O   UNL     1      -8.861   3.335 -16.167  1.00  0.00    -0.457 OA
BRANCH   7   8
ATOM      8  C   UNL     1      -7.634   2.811 -15.826  1.00  0.00    +0.131 A 
ATOM      9  C   UNL     1      -5.816   1.400 -16.396  1.00  0.00    +0.131 A 
ATOM     10  C   UNL     1      -7.036   1.957 -16.743  1.00  0.00    +0.081 A 
ATOM     11  N   UNL     1      -5.182   1.627 -15.207  1.00  0.00    -0.251 NA
ATOM     12  C   UNL     1      -5.813   2.443 -14.337  1.00  0.00    +0.116 A 
ATOM     13  C   UNL     1      -7.030   3.050 -14.593  1.00  0.00    +0.067 A 
BRANCH   9  14
ATOM     14  C   UNL     1      -5.116   0.484 -17.355  1.00  0.00    +0.269 C 
ATOM     15  N   UNL     1      -4.049   1.061 -18.011  1.00  0.00    -0.354 N 
ATOM     16  O   UNL     1      -5.479  -0.675 -17.515  1.00  0.00    -0.268 OA
ATOM     17  C   UNL     1      -3.173   0.308 -18.866  1.00  0.00    +0.143 C 
ATOM     18  H   UNL     1      -3.793   1.997 -17.707  1.00  0.00    +0.163 HD
ENDBRANCH   9  14
ENDBRANCH   7   8
ENDBRANCH   1   7
BRANCH   4  19
ATOM     19  N   UNL     1     -13.095   2.292 -12.673  1.00  0.00    -0.308 N 
ATOM     20  C   UNL     1     -13.019   1.521 -11.522  1.00  0.00    +0.323 C 
ATOM     21  O   UNL     1     -11.986   1.076 -11.041  1.00  0.00    -0.248 OA
ATOM     22  N   UNL     1     -14.288   1.330 -10.992  1.00  0.00    -0.308 N 
ATOM     23  H   UNL     1     -13.945   2.823 -12.792  1.00  0.00    +0.171 HD
ATOM     24  H   UNL     1     -15.054   1.517 -11.623  1.00  0.00    +0.171 HD
BRANCH  22  25
ATOM     25  C   UNL     1     -14.622   0.703  -9.775  1.00  0.00    +0.043 A 
ATOM     26  C   UNL     1     -15.139   1.375  -8.669  1.00  0.00    +0.028 A 
ATOM     27  C   UNL     1     -14.439  -0.684  -9.694  1.00  0.00    +0.040 A 
ATOM     28  C   UNL     1     -15.455   0.675  -7.499  1.00  0.00    +0.023 A 
ATOM     29  C   UNL     1     -14.754  -1.405  -8.521  1.00  0.00    +0.076 A 
ATOM     30  C   UNL     1     -15.263  -0.705  -7.424  1.00  0.00    +0.053 A 
ATOM     31 Cl   UNL     1     -15.678  -1.492  -5.947  1.00  0.00    -0.084 Cl
BRANCH  29  32
ATOM     32  C   UNL     1     -14.538  -2.893  -8.475  1.00  0.00    +0.417 C 
ATOM     33  F   UNL     1     -15.639  -3.580  -8.063  1.00  0.00    -0.166 F 
ATOM     34  F   UNL     1     -13.518  -3.263  -7.655  1.00  0.00    -0.166 F 
ATOM     35  F   UNL     1     -14.226  -3.420  -9.697  1.00  0.00    -0.166 F 
ENDBRANCH  29  32
ENDBRANCH  22  25
ENDBRANCH   4  19
TORSDOF 6
ENDMDL
MODEL 9
REMARK VINA RESULT:    -7.973      8.989     10.887
REMARK INTER + INTRA:         -11.828
REMARK INTER:                 -11.037
REMARK INTRA:                  -0.791
REMARK UNBOUND:                -1.059
REMARK SMILES CNC(=O)c1cc(Oc2ccc(NC(=O)Nc3ccc(Cl)c(C(F)(F)F)c3)cc2)ccn1
REMARK SMILES IDX 9 1 10 2 11 3 12 4 28 5 29 6 8 7 7 8 5 9 6 10 32 11 31 12
REMARK SMILES IDX 30 13 3 14 2 15 4 16 1 17 13 19 14 20 15 21 16 22 17 25
REMARK SMILES IDX 18 26 27 27 19 28 22 29 20 30 21 31 23 32 24 33 25 34 26 35
REMARK H PARENT 2 18 13 23 16 24
ROOT
ATOM      1  C   UNL     1      -3.751  -2.362 -15.513  1.00  0.00    +0.127 A 
ATOM      2  C   UNL     1      -4.662  -1.836 -14.597  1.00  0.00    +0.049 A 
ATOM      3  C   UNL     1      -5.671  -0.977 -15.042  1.00  0.00    +0.030 A 
ATOM      4  C   UNL     1      -5.773  -0.631 -16.397  1.00  0.00    +0.043 A 
ATOM      5  C   UNL     1      -4.832  -1.141 -17.296  1.00  0.00    +0.030 A 
ATOM      6  C   UNL     1      -3.820  -1.998 -16.855  1.00  0.00    +0.049 A 
ENDROOT
BRANCH   1   7
ATOM      7  O   UNL     1      -2.718  -3.186 -15.129  1.00  0.00    -0.457 OA
BRANCH   7   8
ATOM      8  C   UNL     1      -3.050  -4.475 -14.776  1.00  0.00    +0.131 A 
ATOM      9  C   UNL     1      -4.076  -6.527 -15.374  1.00  0.00    +0.131 A 
ATOM     10  C   UNL     1      -3.711  -5.239 -15.729  1.00  0.00    +0.081 A 
ATOM     11  N   UNL     1      -3.841  -7.076 -14.145  1.00  0.00    -0.251 NA
ATOM     12  C   UNL     1      -3.220  -6.288 -13.243  1.00  0.00    +0.116 A 
ATOM     13  C   UNL     1      -2.812  -4.992 -13.505  1.00  0.00    +0.067 A 
BRANCH   9  14
ATOM     14  C   UNL     1      -4.777  -7.403 -16.368  1.00  0.00    +0.269 C 
ATOM     15  N   UNL     1      -4.433  -7.156 -17.680  1.00  0.00    -0.354 N 
ATOM     16  O   UNL     1      -5.576  -8.262 -16.015  1.00  0.00    -0.268 OA
ATOM     17  C   UNL     1      -4.895  -7.977 -18.765  1.00  0.00    +0.143 C 
ATOM     18  H   UNL     1      -3.682  -6.486 -17.824  1.00  0.00    +0.163 HD
ENDBRANCH   9  14
ENDBRANCH   7   8
ENDBRANCH   1   7
BRANCH   4  19
ATOM     19  N   UNL     1      -6.813   0.248 -16.763  1.00  0.00    -0.308 N 
ATOM     20  C   UNL     1      -6.740   1.627 -16.893  1.00  0.00    +0.323 C 
ATOM     21  O   UNL     1      -5.714   2.287 -16.818  1.00  0.00    -0.248 OA
ATOM     22  N   UNL     1      -8.006   2.150 -17.123  1.00  0.00    -0.308 N 
ATOM     23  H   UNL     1      -7.648  -0.185 -17.127  1.00  0.00    +0.171 HD
ATOM     24  H   UNL     1      -8.776   1.540 -16.895  1.00  0.00    +0.171 HD
BRANCH  22  25
ATOM     25  C   UNL     1      -8.337   3.488 -17.421  1.00  0.00    +0.043 A 
ATOM     26  C   UNL     1      -7.644   4.277 -18.337  1.00  0.00    +0.028 A 
ATOM     27  C   UNL     1      -9.449   4.037 -16.766  1.00  0.00    +0.040 A 
ATOM     28  C   UNL     1      -8.046   5.594 -18.583  1.00  0.00    +0.023 A 
ATOM     29  C   UNL     1      -9.867   5.364 -17.004  1.00  0.00    +0.076 A 
ATOM     30  C   UNL     1      -9.149   6.136 -17.921  1.00  0.00    +0.053 A 
ATOM     31 Cl   UNL     1      -9.578   7.766 -18.283  1.00  0.00    -0.084 Cl
BRANCH  29  32
ATOM     32  C   UNL     1     -11.062   5.915 -16.276  1.00  0.00    +0.417 C 
ATOM     33  F   UNL     1     -12.167   6.018 -17.064  1.00  0.00    -0.166 F 
ATOM     34  F   UNL     1     -10.846   7.149 -15.746  1.00  0.00    -0.166 F 
ATOM     35  F   UNL     1     -11.446   5.134 -15.223  1.00  0.00    -0.166 F 
ENDBRANCH  29  32
ENDBRANCH  22  25
ENDBRANCH   4  19
TORSDOF 6
ENDMDL
MODEL 10
REMARK VINA RESULT:    -7.951      6.446     11.855
REMARK INTER + INTRA:         -11.798
REMARK INTER:                 -11.146
REMARK INTRA:                  -0.653
REMARK UNBOUND:                -1.059
REMARK SMILES CNC(=O)c1cc(Oc2ccc(NC(=O)Nc3ccc(Cl)c(C(F)(F)F)c3)cc2)ccn1
REMARK SMILES IDX 9 1 10 2 11 3 12 4 28 5 29 6 8 7 7 8 5 9 6 10 32 11 31 12
REMARK SMILES IDX 30 13 3 14 2 15 4 16 1 17 13 19 14 20 15 21 16 22 17 25
REMARK SMILES IDX 18 26 27 27 19 28 22 29 20 30 21 31 23 32 24 33 25 34 26 35
REMARK H PARENT 2 18 13 23 16 24
ROOT
ATOM      1  C   UNL     1      -7.971   2.559 -16.200  1.00  0.00    +0.127 A 
ATOM      2  C   UNL     1      -7.589   2.851 -14.891  1.00  0.00    +0.049 A 
ATOM      3  C   UNL     1      -7.752   1.888 -13.892  1.00  0.00    +0.030 A 
ATOM      4  C   UNL     1      -8.304   0.633 -14.189  1.00  0.00    +0.043 A 
ATOM      5  C   UNL     1      -8.712   0.368 -15.499  1.00  0.00    +0.030 A 
ATOM      6  C   UNL     1      -8.553   1.331 -16.501  1.00  0.00    +0.049 A 
ENDROOT
BRANCH   1   7
ATOM      7  O   UNL     1      -7.864   3.479 -17.217  1.00  0.00    -0.457 OA
BRANCH   7   8
ATOM      8  C   UNL     1      -8.856   4.430 -17.301  1.00  0.00    +0.131 A 
ATOM      9  C   UNL     1      -9.752   6.314 -18.428  1.00  0.00    +0.131 A 
ATOM     10  C   UNL     1      -8.776   5.334 -18.353  1.00  0.00    +0.081 A 
ATOM     11  N   UNL     1     -10.769   6.451 -17.526  1.00  0.00    -0.251 NA
ATOM     12  C   UNL     1     -10.792   5.567 -16.508  1.00  0.00    +0.116 A 
ATOM     13  C   UNL     1      -9.866   4.551 -16.349  1.00  0.00    +0.067 A 
BRANCH   9  14
ATOM     14  C   UNL     1      -9.724   7.307 -19.552  1.00  0.00    +0.269 C 
ATOM     15  N   UNL     1     -10.032   6.772 -20.785  1.00  0.00    -0.354 N 
ATOM     16  O   UNL     1      -9.457   8.487 -19.359  1.00  0.00    -0.268 OA
ATOM     17  C   UNL     1     -10.189   7.586 -21.960  1.00  0.00    +0.143 C 
ATOM     18  H   UNL     1     -10.335   5.802 -20.787  1.00  0.00    +0.163 HD
ENDBRANCH   9  14
ENDBRANCH   7   8
ENDBRANCH   1   7
BRANCH   4  19
ATOM     19  N   UNL     1      -8.443  -0.280 -13.123  1.00  0.00    -0.308 N 
ATOM     20  C   UNL     1      -9.577  -0.510 -12.357  1.00  0.00    +0.323 C 
ATOM     21  O   UNL     1     -10.680  -0.026 -12.570  1.00  0.00    -0.248 OA
ATOM     22  N   UNL     1      -9.277  -1.374 -11.312  1.00  0.00    -0.308 N 
ATOM     23  H   UNL     1      -7.696  -0.949 -13.016  1.00  0.00    +0.171 HD
ATOM     24  H   UNL     1      -8.296  -1.476 -11.102  1.00  0.00    +0.171 HD
BRANCH  22  25
ATOM     25  C   UNL     1     -10.176  -1.939 -10.385  1.00  0.00    +0.043 A 
ATOM     26  C   UNL     1     -10.203  -1.616  -9.029  1.00  0.00    +0.028 A 
ATOM     27  C   UNL     1     -11.111  -2.862 -10.875  1.00  0.00    +0.040 A 
ATOM     28  C   UNL     1     -11.136  -2.215  -8.177  1.00  0.00    +0.023 A 
ATOM     29  C   UNL     1     -12.060  -3.474 -10.028  1.00  0.00    +0.076 A 
ATOM     30  C   UNL     1     -12.059  -3.139  -8.671  1.00  0.00    +0.053 A 
ATOM     31 Cl   UNL     1     -13.176  -3.830  -7.554  1.00  0.00    -0.084 Cl
BRANCH  29  32
ATOM     32  C   UNL     1     -13.043  -4.463 -10.593  1.00  0.00    +0.417 C 
ATOM     33  F   UNL     1     -14.338  -4.145 -10.321  1.00  0.00    -0.166 F 
ATOM     34  F   UNL     1     -12.849  -5.731 -10.141  1.00  0.00    -0.166 F 
ATOM     35  F   UNL     1     -12.976  -4.553 -11.955  1.00  0.00    -0.166 F 
ENDBRANCH  29  32
ENDBRANCH  22  25
ENDBRANCH   4  19
TORSDOF 6
ENDMDL
