MODEL 1
REMARK VINA RESULT:    -7.747      0.000      0.000
REMARK INTER + INTRA:         -11.270
REMARK INTER:                 -10.238
REMARK INTRA:                  -1.031
REMARK UNBOUND:                -1.031
REMARK SMILES O=[S@@]1CCc2nc(N3CCC(c4ncc(Cl)cn4)CC3)nc(NC3(CO)CCC3)c21
REMARK SMILES IDX 23 1 24 3 28 4 27 5 29 6 25 7 26 8 22 10 21 11 30 12 7 13
REMARK SMILES IDX 5 14 2 15 6 16 4 17 1 18 3 19 8 20 9 21 20 22 10 23 19 24
REMARK SMILES IDX 11 25 12 26 13 27 18 28 14 29 17 30 15 31 16 32
REMARK H PARENT 23 2 26 9
ROOT
ATOM      1  N   UNL     1     -10.584   2.887 -15.464  1.00  0.00    -0.361 N 
ATOM      2  H   UNL     1     -10.541   1.913 -15.773  1.00  0.00    +0.162 HD
ENDROOT
BRANCH   1   3
ATOM      3  C   UNL     1     -10.811   2.940 -14.026  1.00  0.00    +0.062 C 
ATOM      4  C   UNL     1     -12.594   2.675 -12.816  1.00  0.00    +0.005 C 
ATOM      5  C   UNL     1     -12.031   3.834 -13.657  1.00  0.00    +0.031 C 
ATOM      6  C   UNL     1     -11.701   1.716 -13.619  1.00  0.00    +0.031 C 
BRANCH   3   7
ATOM      7  C   UNL     1      -9.503   3.081 -13.233  1.00  0.00    +0.184 C 
BRANCH   7   8
ATOM      8  O   UNL     1      -8.831   1.830 -13.115  1.00  0.00    -0.394 OA
ATOM      9  H   UNL     1      -9.491   1.135 -13.283  1.00  0.00    +0.210 HD
ENDBRANCH   7   8
ENDBRANCH   3   7
ENDBRANCH   1   3
BRANCH   1  10
ATOM     10  C   UNL     1      -9.514   3.473 -16.158  1.00  0.00    +0.148 A 
ATOM     11  N   UNL     1      -8.425   2.679 -16.232  1.00  0.00    -0.194 NA
ATOM     12  C   UNL     1      -9.504   4.724 -16.716  1.00  0.00    +0.103 A 
ATOM     13  C   UNL     1      -7.307   3.125 -16.844  1.00  0.00    +0.227 A 
ATOM     14  C   UNL     1      -8.325   5.116 -17.308  1.00  0.00    +0.065 A 
ATOM     15  S   UNL     1     -10.766   5.971 -16.802  1.00  0.00    +0.059 S 
ATOM     16  N   UNL     1      -7.224   4.353 -17.378  1.00  0.00    -0.217 NA
ATOM     17  C   UNL     1      -8.371   6.474 -17.949  1.00  0.00    +0.072 C 
ATOM     18  O   UNL     1     -11.518   5.680 -18.068  1.00  0.00    -0.254 OA
ATOM     19  C   UNL     1      -9.488   7.221 -17.230  1.00  0.00    +0.117 C 
BRANCH  13  20
ATOM     20  N   UNL     1      -6.198   2.303 -16.884  1.00  0.00    -0.341 N 
ATOM     21  C   UNL     1      -5.270   2.331 -15.758  1.00  0.00    +0.120 C 
ATOM     22  C   UNL     1      -6.263   1.114 -17.728  1.00  0.00    +0.120 C 
ATOM     23  C   UNL     1      -4.874   0.914 -15.352  1.00  0.00    +0.033 C 
ATOM     24  C   UNL     1      -4.862   0.527 -17.881  1.00  0.00    +0.033 C 
ATOM     25  C   UNL     1      -4.258   0.136 -16.523  1.00  0.00    +0.061 C 
BRANCH  25  26
ATOM     26  C   UNL     1      -4.370  -1.349 -16.259  1.00  0.00    +0.131 A 
ATOM     27  N   UNL     1      -3.339  -2.128 -16.644  1.00  0.00    -0.240 NA
ATOM     28  N   UNL     1      -5.472  -1.806 -15.627  1.00  0.00    -0.240 NA
ATOM     29  C   UNL     1      -3.445  -3.448 -16.375  1.00  0.00    +0.135 A 
ATOM     30  C   UNL     1      -5.522  -3.135 -15.383  1.00  0.00    +0.135 A 
ATOM     31  C   UNL     1      -4.526  -4.012 -15.740  1.00  0.00    +0.077 A 
ATOM     32 Cl   UNL     1      -4.624  -5.687 -15.416  1.00  0.00    -0.081 Cl
ENDBRANCH  25  26
ENDBRANCH  13  20
ENDBRANCH   1  10
TORSDOF 6
ENDMDL
MODEL 2
REMARK VINA RESULT:    -7.572      4.887      8.077
REMARK INTER + INTRA:         -11.039
REMARK INTER:                  -9.746
REMARK INTRA:                  -1.293
REMARK UNBOUND:                -1.031
REMARK SMILES O=[S@@]1CCc2nc(N3CCC(c4ncc(Cl)cn4)CC3)nc(NC3(CO)CCC3)c21
REMARK SMILES IDX 23 1 24 3 28 4 27 5 29 6 25 7 26 8 22 10 21 11 30 12 7 13
REMARK SMILES IDX 5 14 2 15 6 16 4 17 1 18 3 19 8 20 9 21 20 22 10 23 19 24
REMARK SMILES IDX 11 25 12 26 13 27 18 28 14 29 17 30 15 31 16 32
REMARK H PARENT 23 2 26 9
ROOT
ATOM      1  N   UNL     1      -7.998  -0.508 -15.883  1.00  0.00    -0.361 N 
ATOM      2  H   UNL     1      -8.237  -0.395 -16.871  1.00  0.00    +0.162 HD
ENDROOT
BRANCH   1   3
ATOM      3  C   UNL     1      -6.555  -0.625 -15.734  1.00  0.00    +0.062 C 
ATOM      4  C   UNL     1      -5.027  -1.543 -16.973  1.00  0.00    +0.005 C 
ATOM      5  C   UNL     1      -6.057  -2.081 -15.966  1.00  0.00    +0.031 C 
ATOM      6  C   UNL     1      -5.885  -0.275 -17.106  1.00  0.00    +0.031 C 
BRANCH   3   7
ATOM      7  C   UNL     1      -6.024   0.172 -14.533  1.00  0.00    +0.184 C 
BRANCH   7   8
ATOM      8  O   UNL     1      -5.324   1.340 -14.955  1.00  0.00    -0.394 OA
ATOM      9  H   UNL     1      -5.521   1.464 -15.899  1.00  0.00    +0.210 HD
ENDBRANCH   7   8
ENDBRANCH   3   7
ENDBRANCH   1   3
BRANCH   1  10
ATOM     10  C   UNL     1      -8.824   0.443 -15.261  1.00  0.00    +0.148 A 
ATOM     11  N   UNL     1      -9.487  -0.043 -14.190  1.00  0.00    -0.194 NA
ATOM     12  C   UNL     1      -8.995   1.742 -15.657  1.00  0.00    +0.103 A 
ATOM     13  C   UNL     1     -10.343   0.752 -13.512  1.00  0.00    +0.227 A 
ATOM     14  C   UNL     1      -9.895   2.486 -14.928  1.00  0.00    +0.065 A 
ATOM     15  S   UNL     1      -8.260   2.662 -16.986  1.00  0.00    +0.059 S 
ATOM     16  N   UNL     1     -10.581   2.022 -13.872  1.00  0.00    -0.217 NA
ATOM     17  C   UNL     1     -10.018   3.919 -15.365  1.00  0.00    +0.072 C 
ATOM     18  O   UNL     1      -7.013   3.262 -16.404  1.00  0.00    -0.254 OA
ATOM     19  C   UNL     1      -9.576   3.934 -16.823  1.00  0.00    +0.117 C 
BRANCH  13  20
ATOM     20  N   UNL     1     -11.028   0.223 -12.435  1.00  0.00    -0.341 N 
ATOM     21  C   UNL     1     -10.675  -1.116 -11.975  1.00  0.00    +0.120 C 
ATOM     22  C   UNL     1     -11.658   1.156 -11.506  1.00  0.00    +0.120 C 
ATOM     23  C   UNL     1     -10.572  -1.152 -10.453  1.00  0.00    +0.033 C 
ATOM     24  C   UNL     1     -12.610   0.390 -10.590  1.00  0.00    +0.033 C 
ATOM     25  C   UNL     1     -11.874  -0.691  -9.782  1.00  0.00    +0.061 C 
BRANCH  25  26
ATOM     26  C   UNL     1     -11.583  -0.241  -8.367  1.00  0.00    +0.131 A 
ATOM     27  N   UNL     1     -10.315  -0.364  -7.926  1.00  0.00    -0.240 NA
ATOM     28  N   UNL     1     -12.592   0.287  -7.643  1.00  0.00    -0.240 NA
ATOM     29  C   UNL     1     -10.068   0.069  -6.669  1.00  0.00    +0.135 A 
ATOM     30  C   UNL     1     -12.285   0.704  -6.393  1.00  0.00    +0.135 A 
ATOM     31  C   UNL     1     -11.026   0.618  -5.850  1.00  0.00    +0.077 A 
ATOM     32 Cl   UNL     1     -10.676   1.154  -4.266  1.00  0.00    -0.081 Cl
ENDBRANCH  25  26
ENDBRANCH  13  20
ENDBRANCH   1  10
TORSDOF 6
ENDMDL
MODEL 3
REMARK VINA RESULT:    -7.550      2.939      4.917
REMARK INTER + INTRA:         -11.009
REMARK INTER:                 -10.283
REMARK INTRA:                  -0.727
REMARK UNBOUND:                -1.031
REMARK SMILES O=[S@@]1CCc2nc(N3CCC(c4ncc(Cl)cn4)CC3)nc(NC3(CO)CCC3)c21
REMARK SMILES IDX 23 1 24 3 28 4 27 5 29 6 25 7 26 8 22 10 21 11 30 12 7 13
REMARK SMILES IDX 5 14 2 15 6 16 4 17 1 18 3 19 8 20 9 21 20 22 10 23 19 24
REMARK SMILES IDX 11 25 12 26 13 27 18 28 14 29 17 30 15 31 16 32
REMARK H PARENT 23 2 26 9
ROOT
ATOM      1  N   UNL     1      -9.838   3.759 -17.389  1.00  0.00    -0.361 N 
ATOM      2  H   UNL     1     -10.844   3.849 -17.228  1.00  0.00    +0.162 HD
ENDROOT
BRANCH   1   3
ATOM      3  C   UNL     1      -9.283   5.047 -17.781  1.00  0.00    +0.062 C 
ATOM      4  C   UNL     1      -9.886   7.088 -17.356  1.00  0.00    +0.005 C 
ATOM      5  C   UNL     1     -10.371   6.009 -18.339  1.00  0.00    +0.031 C 
ATOM      6  C   UNL     1      -9.242   5.973 -16.518  1.00  0.00    +0.031 C 
BRANCH   3   7
ATOM      7  C   UNL     1      -7.946   4.906 -18.524  1.00  0.00    +0.184 C 
BRANCH   7   8
ATOM      8  O   UNL     1      -7.784   5.935 -19.496  1.00  0.00    -0.394 OA
ATOM      9  H   UNL     1      -7.448   6.719 -19.028  1.00  0.00    +0.210 HD
ENDBRANCH   7   8
ENDBRANCH   3   7
ENDBRANCH   1   3
BRANCH   1  10
ATOM     10  C   UNL     1      -9.426   2.973 -16.301  1.00  0.00    +0.148 A 
ATOM     11  N   UNL     1      -8.219   2.397 -16.483  1.00  0.00    -0.194 NA
ATOM     12  C   UNL     1     -10.134   2.758 -15.149  1.00  0.00    +0.103 A 
ATOM     13  C   UNL     1      -7.709   1.586 -15.531  1.00  0.00    +0.227 A 
ATOM     14  C   UNL     1      -9.559   1.908 -14.232  1.00  0.00    +0.065 A 
ATOM     15  S   UNL     1     -11.709   3.381 -14.616  1.00  0.00    +0.059 S 
ATOM     16  N   UNL     1      -8.370   1.309 -14.397  1.00  0.00    -0.217 NA
ATOM     17  C   UNL     1     -10.346   1.736 -12.962  1.00  0.00    +0.072 C 
ATOM     18  O   UNL     1     -11.401   4.662 -13.897  1.00  0.00    -0.254 OA
ATOM     19  C   UNL     1     -11.786   2.068 -13.333  1.00  0.00    +0.117 C 
BRANCH  13  20
ATOM     20  N   UNL     1      -6.483   0.990 -15.752  1.00  0.00    -0.341 N 
ATOM     21  C   UNL     1      -6.455  -0.347 -16.335  1.00  0.00    +0.120 C 
ATOM     22  C   UNL     1      -5.321   1.860 -15.901  1.00  0.00    +0.120 C 
ATOM     23  C   UNL     1      -5.401  -0.434 -17.434  1.00  0.00    +0.033 C 
ATOM     24  C   UNL     1      -4.048   1.020 -15.819  1.00  0.00    +0.033 C 
ATOM     25  C   UNL     1      -4.005  -0.055 -16.917  1.00  0.00    +0.061 C 
BRANCH  25  26
ATOM     26  C   UNL     1      -3.129   0.357 -18.079  1.00  0.00    +0.131 A 
ATOM     27  N   UNL     1      -3.475  -0.085 -19.305  1.00  0.00    -0.240 NA
ATOM     28  N   UNL     1      -2.077   1.166 -17.832  1.00  0.00    -0.240 NA
ATOM     29  C   UNL     1      -2.696   0.316 -20.335  1.00  0.00    +0.135 A 
ATOM     30  C   UNL     1      -1.335   1.536 -18.901  1.00  0.00    +0.135 A 
ATOM     31  C   UNL     1      -1.602   1.135 -20.188  1.00  0.00    +0.077 A 
ATOM     32 Cl   UNL     1      -0.641   1.621 -21.514  1.00  0.00    -0.081 Cl
ENDBRANCH  25  26
ENDBRANCH  13  20
ENDBRANCH   1  10
TORSDOF 6
ENDMDL
MODEL 4
REMARK VINA RESULT:    -7.466      4.715      9.042
REMARK INTER + INTRA:         -10.897
REMARK INTER:                 -10.189
REMARK INTRA:                  -0.708
REMARK UNBOUND:                -1.031
REMARK SMILES O=[S@@]1CCc2nc(N3CCC(c4ncc(Cl)cn4)CC3)nc(NC3(CO)CCC3)c21
REMARK SMILES IDX 23 1 24 3 28 4 27 5 29 6 25 7 26 8 22 10 21 11 30 12 7 13
REMARK SMILES IDX 5 14 2 15 6 16 4 17 1 18 3 19 8 20 9 21 20 22 10 23 19 24
REMARK SMILES IDX 11 25 12 26 13 27 18 28 14 29 17 30 15 31 16 32
REMARK H PARENT 23 2 26 9
ROOT
ATOM      1  N   UNL     1      -3.094  -0.376 -19.377  1.00  0.00    -0.361 N 
ATOM      2  H   UNL     1      -3.855   0.019 -19.935  1.00  0.00    +0.162 HD
ENDROOT
BRANCH   1   3
ATOM      3  C   UNL     1      -1.815   0.124 -19.863  1.00  0.00    +0.062 C 
ATOM      4  C   UNL     1      -1.097   2.125 -20.298  1.00  0.00    +0.005 C 
ATOM      5  C   UNL     1      -1.986   1.119 -21.048  1.00  0.00    +0.031 C 
ATOM      6  C   UNL     1      -1.407   1.365 -18.999  1.00  0.00    +0.031 C 
BRANCH   3   7
ATOM      7  C   UNL     1      -0.751  -0.981 -19.952  1.00  0.00    +0.184 C 
BRANCH   7   8
ATOM      8  O   UNL     1      -0.980  -1.831 -21.073  1.00  0.00    -0.394 OA
ATOM      9  H   UNL     1      -0.963  -2.746 -20.744  1.00  0.00    +0.210 HD
ENDBRANCH   7   8
ENDBRANCH   3   7
ENDBRANCH   1   3
BRANCH   1  10
ATOM     10  C   UNL     1      -3.587  -0.260 -18.068  1.00  0.00    +0.148 A 
ATOM     11  N   UNL     1      -4.662   0.551 -17.970  1.00  0.00    -0.194 NA
ATOM     12  C   UNL     1      -3.071  -0.869 -16.956  1.00  0.00    +0.103 A 
ATOM     13  C   UNL     1      -5.224   0.782 -16.764  1.00  0.00    +0.227 A 
ATOM     14  C   UNL     1      -3.686  -0.574 -15.760  1.00  0.00    +0.065 A 
ATOM     15  S   UNL     1      -1.705  -1.989 -16.769  1.00  0.00    +0.059 S 
ATOM     16  N   UNL     1      -4.742   0.243 -15.634  1.00  0.00    -0.217 NA
ATOM     17  C   UNL     1      -3.119  -1.300 -14.572  1.00  0.00    +0.072 C 
ATOM     18  O   UNL     1      -2.294  -3.358 -16.944  1.00  0.00    -0.254 OA
ATOM     19  C   UNL     1      -1.689  -1.655 -14.962  1.00  0.00    +0.117 C 
BRANCH  13  20
ATOM     20  N   UNL     1      -6.307   1.636 -16.688  1.00  0.00    -0.341 N 
ATOM     21  C   UNL     1      -7.397   1.464 -17.643  1.00  0.00    +0.120 C 
ATOM     22  C   UNL     1      -6.573   2.284 -15.408  1.00  0.00    +0.120 C 
ATOM     23  C   UNL     1      -8.748   1.547 -16.939  1.00  0.00    +0.033 C 
ATOM     24  C   UNL     1      -7.591   3.404 -15.612  1.00  0.00    +0.033 C 
ATOM     25  C   UNL     1      -8.916   2.872 -16.181  1.00  0.00    +0.061 C 
BRANCH  25  26
ATOM     26  C   UNL     1      -9.969   2.712 -15.108  1.00  0.00    +0.131 A 
ATOM     27  N   UNL     1     -10.791   3.757 -14.883  1.00  0.00    -0.240 NA
ATOM     28  N   UNL     1     -10.052   1.528 -14.463  1.00  0.00    -0.240 NA
ATOM     29  C   UNL     1     -11.744   3.585 -13.940  1.00  0.00    +0.135 A 
ATOM     30  C   UNL     1     -11.026   1.414 -13.531  1.00  0.00    +0.135 A 
ATOM     31  C   UNL     1     -11.909   2.423 -13.226  1.00  0.00    +0.077 A 
ATOM     32 Cl   UNL     1     -13.126   2.243 -12.041  1.00  0.00    -0.081 Cl
ENDBRANCH  25  26
ENDBRANCH  13  20
ENDBRANCH   1  10
TORSDOF 6
ENDMDL
MODEL 5
REMARK VINA RESULT:    -7.446      1.780      2.015
REMARK INTER + INTRA:         -10.871
REMARK INTER:                  -9.823
REMARK INTRA:                  -1.048
REMARK UNBOUND:                -1.031
REMARK SMILES O=[S@@]1CCc2nc(N3CCC(c4ncc(Cl)cn4)CC3)nc(NC3(CO)CCC3)c21
REMARK SMILES IDX 23 1 24 3 28 4 27 5 29 6 25 7 26 8 22 10 21 11 30 12 7 13
REMARK SMILES IDX 5 14 2 15 6 16 4 17 1 18 3 19 8 20 9 21 20 22 10 23 19 24
REMARK SMILES IDX 11 25 12 26 13 27 18 28 14 29 17 30 15 31 16 32
REMARK H PARENT 23 2 26 9
ROOT
ATOM      1  N   UNL     1     -10.731   2.946 -15.284  1.00  0.00    -0.361 N 
ATOM      2  H   UNL     1     -11.310   2.239 -15.744  1.00  0.00    +0.162 HD
ENDROOT
BRANCH   1   3
ATOM      3  C   UNL     1     -10.686   2.691 -13.851  1.00  0.00    +0.062 C 
ATOM      4  C   UNL     1     -12.115   1.805 -12.478  1.00  0.00    +0.005 C 
ATOM      5  C   UNL     1     -11.969   3.192 -13.125  1.00  0.00    +0.031 C 
ATOM      6  C   UNL     1     -11.216   1.240 -13.588  1.00  0.00    +0.031 C 
BRANCH   3   7
ATOM      7  C   UNL     1      -9.308   2.997 -13.245  1.00  0.00    +0.184 C 
BRANCH   7   8
ATOM      8  O   UNL     1      -8.542   1.807 -13.075  1.00  0.00    -0.394 OA
ATOM      9  H   UNL     1      -7.756   1.890 -13.642  1.00  0.00    +0.210 HD
ENDBRANCH   7   8
ENDBRANCH   3   7
ENDBRANCH   1   3
BRANCH   1  10
ATOM     10  C   UNL     1      -9.627   3.042 -16.146  1.00  0.00    +0.148 A 
ATOM     11  N   UNL     1      -8.892   1.911 -16.202  1.00  0.00    -0.194 NA
ATOM     12  C   UNL     1      -9.268   4.144 -16.874  1.00  0.00    +0.103 A 
ATOM     13  C   UNL     1      -7.780   1.869 -16.967  1.00  0.00    +0.227 A 
ATOM     14  C   UNL     1      -8.115   4.032 -17.617  1.00  0.00    +0.065 A 
ATOM     15  S   UNL     1     -10.030   5.741 -17.025  1.00  0.00    +0.059 S 
ATOM     16  N   UNL     1      -7.356   2.926 -17.675  1.00  0.00    -0.217 NA
ATOM     17  C   UNL     1      -7.781   5.246 -18.438  1.00  0.00    +0.072 C 
ATOM     18  O   UNL     1     -10.997   5.607 -18.165  1.00  0.00    -0.254 OA
ATOM     19  C   UNL     1      -8.473   6.408 -17.737  1.00  0.00    +0.117 C 
BRANCH  13  20
ATOM     20  N   UNL     1      -7.032   0.708 -16.987  1.00  0.00    -0.341 N 
ATOM     21  C   UNL     1      -5.957   0.590 -17.968  1.00  0.00    +0.120 C 
ATOM     22  C   UNL     1      -6.973  -0.085 -15.764  1.00  0.00    +0.120 C 
ATOM     23  C   UNL     1      -4.697   0.024 -17.321  1.00  0.00    +0.033 C 
ATOM     24  C   UNL     1      -6.376  -1.455 -16.079  1.00  0.00    +0.033 C 
ATOM     25  C   UNL     1      -4.958  -1.337 -16.659  1.00  0.00    +0.061 C 
BRANCH  25  26
ATOM     26  C   UNL     1      -3.895  -1.606 -15.617  1.00  0.00    +0.131 A 
ATOM     27  N   UNL     1      -2.678  -1.062 -15.817  1.00  0.00    -0.240 NA
ATOM     28  N   UNL     1      -4.231  -2.340 -14.535  1.00  0.00    -0.240 NA
ATOM     29  C   UNL     1      -1.749  -1.290 -14.861  1.00  0.00    +0.135 A 
ATOM     30  C   UNL     1      -3.261  -2.534 -13.612  1.00  0.00    +0.135 A 
ATOM     31  C   UNL     1      -1.989  -2.026 -13.726  1.00  0.00    +0.077 A 
ATOM     32 Cl   UNL     1      -0.790  -2.293 -12.539  1.00  0.00    -0.081 Cl
ENDBRANCH  25  26
ENDBRANCH  13  20
ENDBRANCH   1  10
TORSDOF 6
ENDMDL
MODEL 6
REMARK VINA RESULT:    -7.400      5.238      9.426
REMARK INTER + INTRA:         -10.810
REMARK INTER:                 -10.219
REMARK INTRA:                  -0.592
REMARK UNBOUND:                -1.031
REMARK SMILES O=[S@@]1CCc2nc(N3CCC(c4ncc(Cl)cn4)CC3)nc(NC3(CO)CCC3)c21
REMARK SMILES IDX 23 1 24 3 28 4 27 5 29 6 25 7 26 8 22 10 21 11 30 12 7 13
REMARK SMILES IDX 5 14 2 15 6 16 4 17 1 18 3 19 8 20 9 21 20 22 10 23 19 24
REMARK SMILES IDX 11 25 12 26 13 27 18 28 14 29 17 30 15 31 16 32
REMARK H PARENT 23 2 26 9
ROOT
ATOM      1  N   UNL     1      -3.000  -0.385 -19.469  1.00  0.00    -0.361 N 
ATOM      2  H   UNL     1      -3.803   0.045 -19.934  1.00  0.00    +0.162 HD
ENDROOT
BRANCH   1   3
ATOM      3  C   UNL     1      -1.765   0.167 -20.007  1.00  0.00    +0.062 C 
ATOM      4  C   UNL     1      -1.156   2.195 -20.486  1.00  0.00    +0.005 C 
ATOM      5  C   UNL     1      -2.026   1.142 -21.193  1.00  0.00    +0.031 C 
ATOM      6  C   UNL     1      -1.382   1.435 -19.170  1.00  0.00    +0.031 C 
BRANCH   3   7
ATOM      7  C   UNL     1      -0.656  -0.889 -20.128  1.00  0.00    +0.184 C 
BRANCH   7   8
ATOM      8  O   UNL     1      -1.010  -1.907 -21.059  1.00  0.00    -0.394 OA
ATOM      9  H   UNL     1      -0.767  -2.759 -20.656  1.00  0.00    +0.210 HD
ENDBRANCH   7   8
ENDBRANCH   3   7
ENDBRANCH   1   3
BRANCH   1  10
ATOM     10  C   UNL     1      -3.393  -0.382 -18.121  1.00  0.00    +0.148 A 
ATOM     11  N   UNL     1      -4.538   0.297 -17.899  1.00  0.00    -0.194 NA
ATOM     12  C   UNL     1      -2.722  -0.975 -17.085  1.00  0.00    +0.103 A 
ATOM     13  C   UNL     1      -5.020   0.411 -16.642  1.00  0.00    +0.227 A 
ATOM     14  C   UNL     1      -3.264  -0.803 -15.832  1.00  0.00    +0.065 A 
ATOM     15  S   UNL     1      -1.231  -1.939 -17.063  1.00  0.00    +0.059 S 
ATOM     16  N   UNL     1      -4.390  -0.117 -15.582  1.00  0.00    -0.217 NA
ATOM     17  C   UNL     1      -2.525  -1.509 -14.730  1.00  0.00    +0.072 C 
ATOM     18  O   UNL     1      -1.678  -3.357 -17.262  1.00  0.00    -0.254 OA
ATOM     19  C   UNL     1      -1.102  -1.682 -15.247  1.00  0.00    +0.117 C 
BRANCH  13  20
ATOM     20  N   UNL     1      -6.181   1.132 -16.439  1.00  0.00    -0.341 N 
ATOM     21  C   UNL     1      -6.184   2.170 -15.413  1.00  0.00    +0.120 C 
ATOM     22  C   UNL     1      -7.133   1.214 -17.541  1.00  0.00    +0.120 C 
ATOM     23  C   UNL     1      -6.855   3.438 -15.932  1.00  0.00    +0.033 C 
ATOM     24  C   UNL     1      -8.458   1.769 -17.023  1.00  0.00    +0.033 C 
ATOM     25  C   UNL     1      -8.288   3.169 -16.413  1.00  0.00    +0.061 C 
BRANCH  25  26
ATOM     26  C   UNL     1      -8.714   4.260 -17.370  1.00  0.00    +0.131 A 
ATOM     27  N   UNL     1      -7.793   4.715 -18.243  1.00  0.00    -0.240 NA
ATOM     28  N   UNL     1      -9.993   4.689 -17.323  1.00  0.00    -0.240 NA
ATOM     29  C   UNL     1      -8.201   5.670 -19.109  1.00  0.00    +0.135 A 
ATOM     30  C   UNL     1     -10.344   5.644 -18.214  1.00  0.00    +0.135 A 
ATOM     31  C   UNL     1      -9.478   6.176 -19.139  1.00  0.00    +0.077 A 
ATOM     32 Cl   UNL     1      -9.956   7.384 -20.249  1.00  0.00    -0.081 Cl
ENDBRANCH  25  26
ENDBRANCH  13  20
ENDBRANCH   1  10
TORSDOF 6
ENDMDL
MODEL 7
REMARK VINA RESULT:    -7.361      4.764      9.179
REMARK INTER + INTRA:         -10.759
REMARK INTER:                  -9.850
REMARK INTRA:                  -0.909
REMARK UNBOUND:                -1.031
REMARK SMILES O=[S@@]1CCc2nc(N3CCC(c4ncc(Cl)cn4)CC3)nc(NC3(CO)CCC3)c21
REMARK SMILES IDX 23 1 24 3 28 4 27 5 29 6 25 7 26 8 22 10 21 11 30 12 7 13
REMARK SMILES IDX 5 14 2 15 6 16 4 17 1 18 3 19 8 20 9 21 20 22 10 23 19 24
REMARK SMILES IDX 11 25 12 26 13 27 18 28 14 29 17 30 15 31 16 32
REMARK H PARENT 23 2 26 9
ROOT
ATOM      1  N   UNL     1      -3.837  -0.618 -18.504  1.00  0.00    -0.361 N 
ATOM      2  H   UNL     1      -4.530  -0.180 -19.115  1.00  0.00    +0.162 HD
ENDROOT
BRANCH   1   3
ATOM      3  C   UNL     1      -2.519  -0.060 -18.771  1.00  0.00    +0.062 C 
ATOM      4  C   UNL     1      -1.054  -0.449 -20.325  1.00  0.00    +0.005 C 
ATOM      5  C   UNL     1      -1.453  -1.166 -19.024  1.00  0.00    +0.031 C 
ATOM      6  C   UNL     1      -2.417   0.260 -20.301  1.00  0.00    +0.031 C 
BRANCH   3   7
ATOM      7  C   UNL     1      -2.181   1.115 -17.841  1.00  0.00    +0.184 C 
BRANCH   7   8
ATOM      8  O   UNL     1      -1.893   2.297 -18.583  1.00  0.00    -0.394 OA
ATOM      9  H   UNL     1      -2.746   2.689 -18.837  1.00  0.00    +0.210 HD
ENDBRANCH   7   8
ENDBRANCH   3   7
ENDBRANCH   1   3
BRANCH   1  10
ATOM     10  C   UNL     1      -4.495  -0.638 -17.264  1.00  0.00    +0.148 A 
ATOM     11  N   UNL     1      -5.465   0.295 -17.159  1.00  0.00    -0.194 NA
ATOM     12  C   UNL     1      -4.221  -1.480 -16.220  1.00  0.00    +0.103 A 
ATOM     13  C   UNL     1      -6.162   0.414 -16.008  1.00  0.00    +0.227 A 
ATOM     14  C   UNL     1      -4.960  -1.288 -15.074  1.00  0.00    +0.065 A 
ATOM     15  S   UNL     1      -3.043  -2.799 -16.065  1.00  0.00    +0.059 S 
ATOM     16  N   UNL     1      -5.917  -0.357 -14.938  1.00  0.00    -0.217 NA
ATOM     17  C   UNL     1      -4.662  -2.263 -13.970  1.00  0.00    +0.072 C 
ATOM     18  O   UNL     1      -3.763  -4.025 -16.544  1.00  0.00    -0.254 OA
ATOM     19  C   UNL     1      -3.246  -2.755 -14.239  1.00  0.00    +0.117 C 
BRANCH  13  20
ATOM     20  N   UNL     1      -7.133   1.393 -15.917  1.00  0.00    -0.341 N 
ATOM     21  C   UNL     1      -6.831   2.604 -15.161  1.00  0.00    +0.120 C 
ATOM     22  C   UNL     1      -8.155   1.436 -16.958  1.00  0.00    +0.120 C 
ATOM     23  C   UNL     1      -7.288   3.843 -15.924  1.00  0.00    +0.033 C 
ATOM     24  C   UNL     1      -9.288   2.359 -16.515  1.00  0.00    +0.033 C 
ATOM     25  C   UNL     1      -8.787   3.789 -16.255  1.00  0.00    +0.061 C 
BRANCH  25  26
ATOM     26  C   UNL     1      -9.083   4.712 -17.416  1.00  0.00    +0.131 A 
ATOM     27  N   UNL     1     -10.349   5.158 -17.547  1.00  0.00    -0.240 NA
ATOM     28  N   UNL     1      -8.066   5.065 -18.230  1.00  0.00    -0.240 NA
ATOM     29  C   UNL     1     -10.589   6.004 -18.573  1.00  0.00    +0.135 A 
ATOM     30  C   UNL     1      -8.365   5.915 -19.238  1.00  0.00    +0.135 A 
ATOM     31  C   UNL     1      -9.624   6.421 -19.459  1.00  0.00    +0.077 A 
ATOM     32 Cl   UNL     1      -9.965   7.492 -20.745  1.00  0.00    -0.081 Cl
ENDBRANCH  25  26
ENDBRANCH  13  20
ENDBRANCH   1  10
TORSDOF 6
ENDMDL
MODEL 8
REMARK VINA RESULT:    -7.148      1.590      3.814
REMARK INTER + INTRA:         -10.478
REMARK INTER:                 -10.039
REMARK INTRA:                  -0.439
REMARK UNBOUND:                -1.031
REMARK SMILES O=[S@@]1CCc2nc(N3CCC(c4ncc(Cl)cn4)CC3)nc(NC3(CO)CCC3)c21
REMARK SMILES IDX 23 1 24 3 28 4 27 5 29 6 25 7 26 8 22 10 21 11 30 12 7 13
REMARK SMILES IDX 5 14 2 15 6 16 4 17 1 18 3 19 8 20 9 21 20 22 10 23 19 24
REMARK SMILES IDX 11 25 12 26 13 27 18 28 14 29 17 30 15 31 16 32
REMARK H PARENT 23 2 26 9
ROOT
ATOM      1  N   UNL     1     -10.047   4.607 -17.615  1.00  0.00    -0.361 N 
ATOM      2  H   UNL     1     -10.989   4.844 -17.293  1.00  0.00    +0.162 HD
ENDROOT
BRANCH   1   3
ATOM      3  C   UNL     1      -9.381   5.802 -18.113  1.00  0.00    +0.062 C 
ATOM      4  C   UNL     1      -9.809   7.918 -17.883  1.00  0.00    +0.005 C 
ATOM      5  C   UNL     1     -10.379   6.799 -18.771  1.00  0.00    +0.031 C 
ATOM      6  C   UNL     1      -9.268   6.833 -16.938  1.00  0.00    +0.031 C 
BRANCH   3   7
ATOM      7  C   UNL     1      -8.056   5.481 -18.821  1.00  0.00    +0.184 C 
BRANCH   7   8
ATOM      8  O   UNL     1      -7.850   6.333 -19.945  1.00  0.00    -0.394 OA
ATOM      9  H   UNL     1      -8.583   6.973 -19.955  1.00  0.00    +0.210 HD
ENDBRANCH   7   8
ENDBRANCH   3   7
ENDBRANCH   1   3
BRANCH   1  10
ATOM     10  C   UNL     1      -9.583   3.761 -16.595  1.00  0.00    +0.148 A 
ATOM     11  N   UNL     1      -8.364   3.238 -16.847  1.00  0.00    -0.194 NA
ATOM     12  C   UNL     1     -10.252   3.444 -15.444  1.00  0.00    +0.103 A 
ATOM     13  C   UNL     1      -7.805   2.379 -15.968  1.00  0.00    +0.227 A 
ATOM     14  C   UNL     1      -9.628   2.551 -14.604  1.00  0.00    +0.065 A 
ATOM     15  S   UNL     1     -11.830   3.979 -14.829  1.00  0.00    +0.059 S 
ATOM     16  N   UNL     1      -8.426   2.003 -14.840  1.00  0.00    -0.217 NA
ATOM     17  C   UNL     1     -10.374   2.267 -13.330  1.00  0.00    +0.072 C 
ATOM     18  O   UNL     1     -11.540   5.216 -14.030  1.00  0.00    -0.254 OA
ATOM     19  C   UNL     1     -11.833   2.578 -13.640  1.00  0.00    +0.117 C 
BRANCH  13  20
ATOM     20  N   UNL     1      -6.568   1.838 -16.261  1.00  0.00    -0.341 N 
ATOM     21  C   UNL     1      -5.501   1.967 -15.274  1.00  0.00    +0.120 C 
ATOM     22  C   UNL     1      -6.514   0.754 -17.236  1.00  0.00    +0.120 C 
ATOM     23  C   UNL     1      -4.757   0.645 -15.111  1.00  0.00    +0.033 C 
ATOM     24  C   UNL     1      -5.063   0.518 -17.649  1.00  0.00    +0.033 C 
ATOM     25  C   UNL     1      -4.183   0.145 -16.444  1.00  0.00    +0.061 C 
BRANCH  25  26
ATOM     26  C   UNL     1      -3.937  -1.345 -16.363  1.00  0.00    +0.131 A 
ATOM     27  N   UNL     1      -2.759  -1.806 -16.831  1.00  0.00    -0.240 NA
ATOM     28  N   UNL     1      -4.887  -2.121 -15.800  1.00  0.00    -0.240 NA
ATOM     29  C   UNL     1      -2.546  -3.137 -16.724  1.00  0.00    +0.135 A 
ATOM     30  C   UNL     1      -4.617  -3.444 -15.719  1.00  0.00    +0.135 A 
ATOM     31  C   UNL     1      -3.450  -4.012 -16.171  1.00  0.00    +0.077 A 
ATOM     32 Cl   UNL     1      -3.145  -5.689 -16.053  1.00  0.00    -0.081 Cl
ENDBRANCH  25  26
ENDBRANCH  13  20
ENDBRANCH   1  10
TORSDOF 6
ENDMDL
MODEL 9
REMARK VINA RESULT:    -7.132      4.368      8.933
REMARK INTER + INTRA:         -10.457
REMARK INTER:                  -9.287
REMARK INTRA:                  -1.169
REMARK UNBOUND:                -1.031
REMARK SMILES O=[S@@]1CCc2nc(N3CCC(c4ncc(Cl)cn4)CC3)nc(NC3(CO)CCC3)c21
REMARK SMILES IDX 23 1 24 3 28 4 27 5 29 6 25 7 26 8 22 10 21 11 30 12 7 13
REMARK SMILES IDX 5 14 2 15 6 16 4 17 1 18 3 19 8 20 9 21 20 22 10 23 19 24
REMARK SMILES IDX 11 25 12 26 13 27 18 28 14 29 17 30 15 31 16 32
REMARK H PARENT 23 2 26 9
ROOT
ATOM      1  N   UNL     1      -4.398  -1.610 -17.283  1.00  0.00    -0.361 N 
ATOM      2  H   UNL     1      -5.139  -1.490 -17.977  1.00  0.00    +0.162 HD
ENDROOT
BRANCH   1   3
ATOM      3  C   UNL     1      -3.349  -0.624 -17.505  1.00  0.00    +0.062 C 
ATOM      4  C   UNL     1      -1.344  -0.416 -16.699  1.00  0.00    +0.005 C 
ATOM      5  C   UNL     1      -2.752  -0.092 -16.169  1.00  0.00    +0.031 C 
ATOM      6  C   UNL     1      -1.992  -1.381 -17.704  1.00  0.00    +0.031 C 
BRANCH   3   7
ATOM      7  C   UNL     1      -3.706   0.369 -18.620  1.00  0.00    +0.184 C 
BRANCH   7   8
ATOM      8  O   UNL     1      -5.004   0.925 -18.423  1.00  0.00    -0.394 OA
ATOM      9  H   UNL     1      -4.940   1.538 -17.671  1.00  0.00    +0.210 HD
ENDBRANCH   7   8
ENDBRANCH   3   7
ENDBRANCH   1   3
BRANCH   1  10
ATOM     10  C   UNL     1      -5.122  -1.799 -16.095  1.00  0.00    +0.148 A 
ATOM     11  N   UNL     1      -6.013  -0.814 -15.849  1.00  0.00    -0.194 NA
ATOM     12  C   UNL     1      -4.980  -2.844 -15.223  1.00  0.00    +0.103 A 
ATOM     13  C   UNL     1      -6.759  -0.847 -14.724  1.00  0.00    +0.227 A 
ATOM     14  C   UNL     1      -5.762  -2.801 -14.091  1.00  0.00    +0.065 A 
ATOM     15  S   UNL     1      -3.930  -4.275 -15.280  1.00  0.00    +0.059 S 
ATOM     16  N   UNL     1      -6.640  -1.826 -13.814  1.00  0.00    -0.217 NA
ATOM     17  C   UNL     1      -5.611  -3.990 -13.183  1.00  0.00    +0.072 C 
ATOM     18  O   UNL     1      -4.727  -5.315 -16.013  1.00  0.00    -0.254 OA
ATOM     19  C   UNL     1      -4.229  -4.556 -13.488  1.00  0.00    +0.117 C 
BRANCH  13  20
ATOM     20  N   UNL     1      -7.645   0.185 -14.483  1.00  0.00    -0.341 N 
ATOM     21  C   UNL     1      -7.189   1.323 -13.691  1.00  0.00    +0.120 C 
ATOM     22  C   UNL     1      -8.753   0.361 -15.417  1.00  0.00    +0.120 C 
ATOM     23  C   UNL     1      -7.625   2.636 -14.334  1.00  0.00    +0.033 C 
ATOM     24  C   UNL     1      -9.771   1.326 -14.814  1.00  0.00    +0.033 C 
ATOM     25  C   UNL     1      -9.148   2.700 -14.521  1.00  0.00    +0.061 C 
BRANCH  25  26
ATOM     26  C   UNL     1      -9.484   3.714 -15.592  1.00  0.00    +0.131 A 
ATOM     27  N   UNL     1      -8.680   3.765 -16.673  1.00  0.00    -0.240 NA
ATOM     28  N   UNL     1     -10.582   4.482 -15.425  1.00  0.00    -0.240 NA
ATOM     29  C   UNL     1      -9.012   4.658 -17.633  1.00  0.00    +0.135 A 
ATOM     30  C   UNL     1     -10.865   5.356 -16.418  1.00  0.00    +0.135 A 
ATOM     31  C   UNL     1     -10.106   5.486 -17.556  1.00  0.00    +0.077 A 
ATOM     32 Cl   UNL     1     -10.494   6.603 -18.790  1.00  0.00    -0.081 Cl
ENDBRANCH  25  26
ENDBRANCH  13  20
ENDBRANCH   1  10
TORSDOF 6
ENDMDL
MODEL 10
REMARK VINA RESULT:    -7.086      4.756      8.793
REMARK INTER + INTRA:         -10.396
REMARK INTER:                  -9.166
REMARK INTRA:                  -1.230
REMARK UNBOUND:                -1.031
REMARK SMILES O=[S@@]1CCc2nc(N3CCC(c4ncc(Cl)cn4)CC3)nc(NC3(CO)CCC3)c21
REMARK SMILES IDX 23 1 24 3 28 4 27 5 29 6 25 7 26 8 22 10 21 11 30 12 7 13
REMARK SMILES IDX 5 14 2 15 6 16 4 17 1 18 3 19 8 20 9 21 20 22 10 23 19 24
REMARK SMILES IDX 11 25 12 26 13 27 18 28 14 29 17 30 15 31 16 32
REMARK H PARENT 23 2 26 9
ROOT
ATOM      1  N   UNL     1      -3.851  -3.413 -14.817  1.00  0.00    -0.361 N 
ATOM      2  H   UNL     1      -3.161  -3.683 -14.113  1.00  0.00    +0.162 HD
ENDROOT
BRANCH   1   3
ATOM      3  C   UNL     1      -4.506  -4.600 -15.348  1.00  0.00    +0.062 C 
ATOM      4  C   UNL     1      -3.775  -6.593 -15.802  1.00  0.00    +0.005 C 
ATOM      5  C   UNL     1      -3.705  -5.236 -16.523  1.00  0.00    +0.031 C 
ATOM      6  C   UNL     1      -4.058  -5.836 -14.496  1.00  0.00    +0.031 C 
BRANCH   3   7
ATOM      7  C   UNL     1      -6.025  -4.421 -15.480  1.00  0.00    +0.184 C 
BRANCH   7   8
ATOM      8  O   UNL     1      -6.723  -5.169 -14.488  1.00  0.00    -0.394 OA
ATOM      9  H   UNL     1      -6.214  -5.984 -14.335  1.00  0.00    +0.210 HD
ENDBRANCH   7   8
ENDBRANCH   3   7
ENDBRANCH   1   3
BRANCH   1  10
ATOM     10  C   UNL     1      -4.485  -2.314 -14.215  1.00  0.00    +0.148 A 
ATOM     11  N   UNL     1      -4.581  -1.240 -15.028  1.00  0.00    -0.194 NA
ATOM     12  C   UNL     1      -4.966  -2.264 -12.935  1.00  0.00    +0.103 A 
ATOM     13  C   UNL     1      -5.139  -0.099 -14.572  1.00  0.00    +0.227 A 
ATOM     14  C   UNL     1      -5.506  -1.063 -12.535  1.00  0.00    +0.065 A 
ATOM     15  S   UNL     1      -5.006  -3.496 -11.657  1.00  0.00    +0.059 S 
ATOM     16  N   UNL     1      -5.597   0.024 -13.316  1.00  0.00    -0.217 NA
ATOM     17  C   UNL     1      -6.066  -1.065 -11.140  1.00  0.00    +0.072 C 
ATOM     18  O   UNL     1      -6.304  -4.224 -11.855  1.00  0.00    -0.254 OA
ATOM     19  C   UNL     1      -5.329  -2.183 -10.412  1.00  0.00    +0.117 C 
BRANCH  13  20
ATOM     20  N   UNL     1      -5.203   0.994 -15.415  1.00  0.00    -0.341 N 
ATOM     21  C   UNL     1      -5.201   0.761 -16.856  1.00  0.00    +0.120 C 
ATOM     22  C   UNL     1      -5.784   2.225 -14.890  1.00  0.00    +0.120 C 
ATOM     23  C   UNL     1      -6.256   1.623 -17.542  1.00  0.00    +0.033 C 
ATOM     24  C   UNL     1      -5.478   3.375 -15.847  1.00  0.00    +0.033 C 
ATOM     25  C   UNL     1      -6.052   3.116 -17.249  1.00  0.00    +0.061 C 
BRANCH  25  26
ATOM     26  C   UNL     1      -7.349   3.860 -17.476  1.00  0.00    +0.131 A 
ATOM     27  N   UNL     1      -7.326   4.901 -18.332  1.00  0.00    -0.240 NA
ATOM     28  N   UNL     1      -8.457   3.421 -16.842  1.00  0.00    -0.240 NA
ATOM     29  C   UNL     1      -8.501   5.536 -18.543  1.00  0.00    +0.135 A 
ATOM     30  C   UNL     1      -9.604   4.094 -17.094  1.00  0.00    +0.135 A 
ATOM     31  C   UNL     1      -9.683   5.171 -17.945  1.00  0.00    +0.077 A 
ATOM     32 Cl   UNL     1     -11.150   5.997 -18.237  1.00  0.00    -0.081 Cl
ENDBRANCH  25  26
ENDBRANCH  13  20
ENDBRANCH   1  10
TORSDOF 6
ENDMDL
