REMARK SMILES Cc1ccc(NC(=O)c2ccc(CN3CCN(C)CC3)cc2)cc1Nc1nccc(-c2cccnc2)n1
REMARK SMILES IDX 6 1 7 2 8 3 5 5 2 6 3 7 24 8 4 9 23 10 1 11 25 12 26 14
REMARK SMILES IDX 27 15 37 16 28 17 30 18 29 19 31 20 32 21 36 22 33 23 35 24
REMARK SMILES IDX 34 25 9 26 10 27 22 28 11 29 21 30 12 31 13 32 14 33 15 34
REMARK SMILES IDX 20 35 16 36 19 37 17 38 18 39
REMARK H PARENT 6 4 25 13
ROOT
ATOM      1  N   UNL     1       0.090  -1.282  -1.006  1.00  0.00    -0.322 N 
ATOM      2  C   UNL     1       1.365  -1.807  -1.119  1.00  0.00    +0.255 C 
ATOM      3  O   UNL     1       1.801  -2.491  -2.037  1.00  0.00    -0.269 OA
ATOM      4  H   UNL     1      -0.157  -0.856  -0.122  1.00  0.00    +0.170 HD
ENDROOT
BRANCH   1   5
ATOM      5  C   UNL     1      -0.954  -1.348  -1.954  1.00  0.00    +0.043 A 
ATOM      6  C   UNL     1      -3.145  -1.374  -3.722  1.00  0.00    -0.027 A 
ATOM      7  C   UNL     1      -1.903  -1.912  -4.098  1.00  0.00    +0.008 A 
ATOM      8  C   UNL     1      -3.307  -0.811  -2.436  1.00  0.00    +0.046 A 
ATOM      9  C   UNL     1      -0.817  -1.899  -3.222  1.00  0.00    +0.026 A 
ATOM     10  C   UNL     1      -2.194  -0.808  -1.578  1.00  0.00    +0.052 A 
ATOM     11  C   UNL     1      -4.272  -1.418  -4.721  1.00  0.00    +0.046 C 
BRANCH   8  12
ATOM     12  N   UNL     1      -4.545  -0.263  -2.064  1.00  0.00    -0.324 N 
ATOM     13  H   UNL     1      -5.307  -0.368  -2.716  1.00  0.00    +0.170 HD
BRANCH  12  14
ATOM     14  C   UNL     1      -5.027   0.395  -0.936  1.00  0.00    +0.227 A 
ATOM     15  N   UNL     1      -4.248   0.692   0.111  1.00  0.00    -0.221 NA
ATOM     16  N   UNL     1      -6.332   0.711  -0.990  1.00  0.00    -0.213 NA
ATOM     17  C   UNL     1      -4.821   1.334   1.142  1.00  0.00    +0.117 A 
ATOM     18  C   UNL     1      -6.886   1.367   0.055  1.00  0.00    +0.077 A 
ATOM     19  C   UNL     1      -6.143   1.699   1.168  1.00  0.00    +0.049 A 
BRANCH  18  20
ATOM     20  C   UNL     1      -8.318   1.685  -0.081  1.00  0.00    +0.019 A 
ATOM     21  C   UNL     1      -8.920   2.797   0.528  1.00  0.00    +0.013 A 
ATOM     22  C   UNL     1      -9.169   0.882  -0.846  1.00  0.00    +0.121 A 
ATOM     23  C   UNL     1     -10.284   3.045   0.366  1.00  0.00    +0.021 A 
ATOM     24  N   UNL     1     -10.500   1.093  -1.019  1.00  0.00    -0.264 NA
ATOM     25  C   UNL     1     -11.025   2.171  -0.408  1.00  0.00    +0.111 A 
ENDBRANCH  18  20
ENDBRANCH  12  14
ENDBRANCH   8  12
ENDBRANCH   1   5
BRANCH   2  26
ATOM     26  C   UNL     1       2.262  -1.524   0.038  1.00  0.00    +0.040 A 
ATOM     27  C   UNL     1       3.190  -2.499   0.416  1.00  0.00    +0.014 A 
ATOM     28  C   UNL     1       2.214  -0.309   0.732  1.00  0.00    +0.014 A 
ATOM     29  C   UNL     1       4.048  -2.273   1.495  1.00  0.00    +0.006 A 
ATOM     30  C   UNL     1       3.075  -0.087   1.811  1.00  0.00    +0.006 A 
ATOM     31  C   UNL     1       4.006  -1.062   2.203  1.00  0.00    -0.034 A 
BRANCH  31  32
ATOM     32  C   UNL     1       4.939  -0.814   3.372  1.00  0.00    +0.120 C 
BRANCH  32  33
ATOM     33  N   UNL     1       6.225  -0.180   3.075  1.00  0.00    -0.297 NA
ATOM     34  C   UNL     1       7.148  -0.967   2.246  1.00  0.00    +0.100 C 
ATOM     35  C   UNL     1       6.135   1.223   2.647  1.00  0.00    +0.100 C 
ATOM     36  C   UNL     1       7.443  -0.350   0.859  1.00  0.00    +0.099 C 
ATOM     37  C   UNL     1       7.492   1.743   2.122  1.00  0.00    +0.099 C 
ATOM     38  N   UNL     1       7.932   1.045   0.895  1.00  0.00    -0.304 NA
ATOM     39  C   UNL     1       9.383   1.118   0.756  1.00  0.00    +0.105 C 
ENDBRANCH  32  33
ENDBRANCH  31  32
ENDBRANCH   2  26
TORSDOF 7
