MODEL 1
REMARK VINA RESULT:   -12.343      0.000      0.000
REMARK INTER + INTRA:         -17.938
REMARK INTER:                 -17.395
REMARK INTRA:                  -0.544
REMARK UNBOUND:                -0.544
REMARK SMILES Cc1ccc(NC(=O)c2ccc(CN3CCN(C)CC3)cc2)cc1Nc1nccc(-c2cccnc2)n1
REMARK SMILES IDX 6 1 7 2 8 3 5 5 2 6 3 7 24 8 4 9 23 10 1 11 25 12 26 14
REMARK SMILES IDX 27 15 37 16 28 17 30 18 29 19 31 20 32 21 36 22 33 23 35 24
REMARK SMILES IDX 34 25 9 26 10 27 22 28 11 29 21 30 12 31 13 32 14 33 15 34
REMARK SMILES IDX 20 35 16 36 19 37 17 38 18 39
REMARK H PARENT 6 4 25 13
ROOT
ATOM      1  N   UNL     1     -39.212 157.792   3.316  1.00  0.00    -0.322 N 
ATOM      2  C   UNL     1     -37.874 157.546   3.064  1.00  0.00    +0.255 C 
ATOM      3  O   UNL     1     -37.240 157.876   2.069  1.00  0.00    -0.269 OA
ATOM      4  H   UNL     1     -39.622 157.333   4.120  1.00  0.00    +0.170 HD
ENDROOT
BRANCH   1   5
ATOM      5  C   UNL     1     -40.112 158.543   2.529  1.00  0.00    +0.043 A 
ATOM      6  C   UNL     1     -41.754 160.095   0.849  1.00  0.00    -0.027 A 
ATOM      7  C   UNL     1     -42.305 159.286   1.856  1.00  0.00    +0.008 A 
ATOM      8  C   UNL     1     -40.352 160.139   0.670  1.00  0.00    +0.046 A 
ATOM      9  C   UNL     1     -41.491 158.516   2.689  1.00  0.00    +0.026 A 
ATOM     10  C   UNL     1     -39.560 159.349   1.521  1.00  0.00    +0.052 A 
ATOM     11  C   UNL     1     -42.693 160.895  -0.016  1.00  0.00    +0.046 C 
BRANCH   8  12
ATOM     12  N   UNL     1     -39.802 160.938  -0.344  1.00  0.00    -0.324 N 
ATOM     13  H   UNL     1     -39.556 161.885  -0.098  1.00  0.00    +0.170 HD
BRANCH  12  14
ATOM     14  C   UNL     1     -39.451 160.731  -1.675  1.00  0.00    +0.227 A 
ATOM     15  N   UNL     1     -39.368 159.509  -2.214  1.00  0.00    -0.221 NA
ATOM     16  N   UNL     1     -39.211 161.855  -2.370  1.00  0.00    -0.213 NA
ATOM     17  C   UNL     1     -39.026 159.430  -3.510  1.00  0.00    +0.117 A 
ATOM     18  C   UNL     1     -38.878 161.753  -3.677  1.00  0.00    +0.077 A 
ATOM     19  C   UNL     1     -38.769 160.526  -4.295  1.00  0.00    +0.049 A 
BRANCH  18  20
ATOM     20  C   UNL     1     -38.638 163.029  -4.373  1.00  0.00    +0.019 A 
ATOM     21  C   UNL     1     -38.334 163.113  -5.741  1.00  0.00    +0.013 A 
ATOM     22  C   UNL     1     -38.708 164.249  -3.694  1.00  0.00    +0.121 A 
ATOM     23  C   UNL     1     -38.112 164.352  -6.345  1.00  0.00    +0.021 A 
ATOM     24  N   UNL     1     -38.492 165.469  -4.252  1.00  0.00    -0.264 NA
ATOM     25  C   UNL     1     -38.199 165.490  -5.565  1.00  0.00    +0.111 A 
ENDBRANCH  18  20
ENDBRANCH  12  14
ENDBRANCH   8  12
ENDBRANCH   1   5
BRANCH   2  26
ATOM     26  C   UNL     1     -37.174 156.757   4.118  1.00  0.00    +0.040 A 
ATOM     27  C   UNL     1     -35.803 156.961   4.303  1.00  0.00    +0.014 A 
ATOM     28  C   UNL     1     -37.854 155.845   4.934  1.00  0.00    +0.014 A 
ATOM     29  C   UNL     1     -35.111 156.241   5.279  1.00  0.00    +0.006 A 
ATOM     30  C   UNL     1     -37.157 155.127   5.910  1.00  0.00    +0.006 A 
ATOM     31  C   UNL     1     -35.779 155.319   6.100  1.00  0.00    -0.034 A 
BRANCH  31  32
ATOM     32  C   UNL     1     -35.029 154.540   7.162  1.00  0.00    +0.120 C 
BRANCH  32  33
ATOM     33  N   UNL     1     -34.825 153.110   6.920  1.00  0.00    -0.297 NA
ATOM     34  C   UNL     1     -35.859 152.218   7.460  1.00  0.00    +0.100 C 
ATOM     35  C   UNL     1     -34.444 152.768   5.543  1.00  0.00    +0.100 C 
ATOM     36  C   UNL     1     -36.669 151.457   6.385  1.00  0.00    +0.099 C 
ATOM     37  C   UNL     1     -34.486 151.242   5.306  1.00  0.00    +0.099 C 
ATOM     38  N   UNL     1     -35.850 150.685   5.425  1.00  0.00    -0.304 NA
ATOM     39  C   UNL     1     -35.798 149.268   5.769  1.00  0.00    +0.105 C 
ENDBRANCH  32  33
ENDBRANCH  31  32
ENDBRANCH   2  26
TORSDOF 7
ENDMDL
MODEL 2
REMARK VINA RESULT:   -11.439      1.017      1.568
REMARK INTER + INTRA:         -16.664
REMARK INTER:                 -16.249
REMARK INTRA:                  -0.415
REMARK UNBOUND:                -0.544
REMARK SMILES Cc1ccc(NC(=O)c2ccc(CN3CCN(C)CC3)cc2)cc1Nc1nccc(-c2cccnc2)n1
REMARK SMILES IDX 6 1 7 2 8 3 5 5 2 6 3 7 24 8 4 9 23 10 1 11 25 12 26 14
REMARK SMILES IDX 27 15 37 16 28 17 30 18 29 19 31 20 32 21 36 22 33 23 35 24
REMARK SMILES IDX 34 25 9 26 10 27 22 28 11 29 21 30 12 31 13 32 14 33 15 34
REMARK SMILES IDX 20 35 16 36 19 37 17 38 18 39
REMARK H PARENT 6 4 25 13
ROOT
ATOM      1  N   UNL     1     -39.081 157.619   3.148  1.00  0.00    -0.322 N 
ATOM      2  C   UNL     1     -37.700 157.679   3.203  1.00  0.00    +0.255 C 
ATOM      3  O   UNL     1     -36.962 158.344   2.486  1.00  0.00    -0.269 OA
ATOM      4  H   UNL     1     -39.535 156.916   3.717  1.00  0.00    +0.170 HD
ENDROOT
BRANCH   1   5
ATOM      5  C   UNL     1     -39.941 158.369   2.318  1.00  0.00    +0.043 A 
ATOM      6  C   UNL     1     -41.514 159.872   0.529  1.00  0.00    -0.027 A 
ATOM      7  C   UNL     1     -42.056 159.362   1.721  1.00  0.00    +0.008 A 
ATOM      8  C   UNL     1     -40.156 159.633   0.217  1.00  0.00    +0.046 A 
ATOM      9  C   UNL     1     -41.277 158.618   2.607  1.00  0.00    +0.026 A 
ATOM     10  C   UNL     1     -39.399 158.876   1.126  1.00  0.00    +0.052 A 
ATOM     11  C   UNL     1     -42.415 160.663  -0.382  1.00  0.00    +0.046 C 
BRANCH   8  12
ATOM     12  N   UNL     1     -39.617 160.132  -0.979  1.00  0.00    -0.324 N 
ATOM     13  H   UNL     1     -39.429 159.465  -1.711  1.00  0.00    +0.170 HD
BRANCH  12  14
ATOM     14  C   UNL     1     -39.292 161.400  -1.455  1.00  0.00    +0.227 A 
ATOM     15  N   UNL     1     -39.175 162.462  -0.649  1.00  0.00    -0.221 NA
ATOM     16  N   UNL     1     -39.100 161.464  -2.784  1.00  0.00    -0.213 NA
ATOM     17  C   UNL     1     -38.852 163.634  -1.220  1.00  0.00    +0.117 A 
ATOM     18  C   UNL     1     -38.765 162.653  -3.335  1.00  0.00    +0.077 A 
ATOM     19  C   UNL     1     -38.633 163.789  -2.565  1.00  0.00    +0.049 A 
BRANCH  18  20
ATOM     20  C   UNL     1     -38.564 162.642  -4.795  1.00  0.00    +0.019 A 
ATOM     21  C   UNL     1     -38.462 161.463  -5.548  1.00  0.00    +0.013 A 
ATOM     22  C   UNL     1     -38.470 163.833  -5.522  1.00  0.00    +0.121 A 
ATOM     23  C   UNL     1     -38.268 161.516  -6.930  1.00  0.00    +0.021 A 
ATOM     24  N   UNL     1     -38.276 163.918  -6.864  1.00  0.00    -0.264 NA
ATOM     25  C   UNL     1     -38.180 162.756  -7.535  1.00  0.00    +0.111 A 
ENDBRANCH  18  20
ENDBRANCH  12  14
ENDBRANCH   8  12
ENDBRANCH   1   5
BRANCH   2  26
ATOM     26  C   UNL     1     -37.076 156.793   4.228  1.00  0.00    +0.040 A 
ATOM     27  C   UNL     1     -35.684 156.795   4.353  1.00  0.00    +0.014 A 
ATOM     28  C   UNL     1     -37.845 155.986   5.075  1.00  0.00    +0.014 A 
ATOM     29  C   UNL     1     -35.061 155.980   5.300  1.00  0.00    +0.006 A 
ATOM     30  C   UNL     1     -37.218 155.172   6.023  1.00  0.00    +0.006 A 
ATOM     31  C   UNL     1     -35.820 155.162   6.152  1.00  0.00    -0.034 A 
BRANCH  31  32
ATOM     32  C   UNL     1     -35.145 154.278   7.183  1.00  0.00    +0.120 C 
BRANCH  32  33
ATOM     33  N   UNL     1     -35.132 152.838   6.920  1.00  0.00    -0.297 NA
ATOM     34  C   UNL     1     -36.348 152.108   7.303  1.00  0.00    +0.100 C 
ATOM     35  C   UNL     1     -34.640 152.461   5.588  1.00  0.00    +0.100 C 
ATOM     36  C   UNL     1     -37.125 151.497   6.114  1.00  0.00    +0.099 C 
ATOM     37  C   UNL     1     -34.883 150.963   5.298  1.00  0.00    +0.099 C 
ATOM     38  N   UNL     1     -36.321 150.622   5.234  1.00  0.00    -0.304 NA
ATOM     39  C   UNL     1     -36.527 149.209   5.535  1.00  0.00    +0.105 C 
ENDBRANCH  32  33
ENDBRANCH  31  32
ENDBRANCH   2  26
TORSDOF 7
ENDMDL
MODEL 3
REMARK VINA RESULT:   -11.402      2.697     12.479
REMARK INTER + INTRA:         -16.612
REMARK INTER:                 -15.729
REMARK INTRA:                  -0.883
REMARK UNBOUND:                -0.544
REMARK SMILES Cc1ccc(NC(=O)c2ccc(CN3CCN(C)CC3)cc2)cc1Nc1nccc(-c2cccnc2)n1
REMARK SMILES IDX 6 1 7 2 8 3 5 5 2 6 3 7 24 8 4 9 23 10 1 11 25 12 26 14
REMARK SMILES IDX 27 15 37 16 28 17 30 18 29 19 31 20 32 21 36 22 33 23 35 24
REMARK SMILES IDX 34 25 9 26 10 27 22 28 11 29 21 30 12 31 13 32 14 33 15 34
REMARK SMILES IDX 20 35 16 36 19 37 17 38 18 39
REMARK H PARENT 6 4 25 13
ROOT
ATOM      1  N   UNL     1     -39.951 160.779  -1.533  1.00  0.00    -0.322 N 
ATOM      2  C   UNL     1     -39.378 162.036  -1.614  1.00  0.00    +0.255 C 
ATOM      3  O   UNL     1     -39.200 162.825  -0.694  1.00  0.00    -0.269 OA
ATOM      4  H   UNL     1     -40.153 160.307  -2.405  1.00  0.00    +0.170 HD
ENDROOT
BRANCH   1   5
ATOM      5  C   UNL     1     -40.377 160.102  -0.370  1.00  0.00    +0.043 A 
ATOM      6  C   UNL     1     -41.047 158.677   1.964  1.00  0.00    -0.027 A 
ATOM      7  C   UNL     1     -41.953 159.577   1.378  1.00  0.00    +0.008 A 
ATOM      8  C   UNL     1     -39.778 158.476   1.377  1.00  0.00    +0.046 A 
ATOM      9  C   UNL     1     -41.621 160.283   0.222  1.00  0.00    +0.026 A 
ATOM     10  C   UNL     1     -39.470 159.205   0.216  1.00  0.00    +0.052 A 
ATOM     11  C   UNL     1     -41.472 157.952   3.215  1.00  0.00    +0.046 C 
BRANCH   8  12
ATOM     12  N   UNL     1     -38.868 157.585   1.969  1.00  0.00    -0.324 N 
ATOM     13  H   UNL     1     -38.627 156.759   1.443  1.00  0.00    +0.170 HD
BRANCH  12  14
ATOM     14  C   UNL     1     -38.138 157.572   3.154  1.00  0.00    +0.227 A 
ATOM     15  N   UNL     1     -37.672 158.690   3.724  1.00  0.00    -0.221 NA
ATOM     16  N   UNL     1     -37.948 156.349   3.679  1.00  0.00    -0.213 NA
ATOM     17  C   UNL     1     -36.986 158.556   4.871  1.00  0.00    +0.117 A 
ATOM     18  C   UNL     1     -37.263 156.239   4.840  1.00  0.00    +0.077 A 
ATOM     19  C   UNL     1     -36.750 157.349   5.478  1.00  0.00    +0.049 A 
BRANCH  18  20
ATOM     20  C   UNL     1     -37.102 154.868   5.355  1.00  0.00    +0.019 A 
ATOM     21  C   UNL     1     -36.383 154.565   6.522  1.00  0.00    +0.013 A 
ATOM     22  C   UNL     1     -37.676 153.775   4.699  1.00  0.00    +0.121 A 
ATOM     23  C   UNL     1     -36.262 153.245   6.959  1.00  0.00    +0.021 A 
ATOM     24  N   UNL     1     -37.572 152.480   5.095  1.00  0.00    -0.264 NA
ATOM     25  C   UNL     1     -36.867 152.247   6.218  1.00  0.00    +0.111 A 
ENDBRANCH  18  20
ENDBRANCH  12  14
ENDBRANCH   8  12
ENDBRANCH   1   5
BRANCH   2  26
ATOM     26  C   UNL     1     -38.985 162.456  -2.990  1.00  0.00    +0.040 A 
ATOM     27  C   UNL     1     -38.944 161.487  -3.996  1.00  0.00    +0.014 A 
ATOM     28  C   UNL     1     -38.685 163.788  -3.299  1.00  0.00    +0.014 A 
ATOM     29  C   UNL     1     -38.580 161.839  -5.298  1.00  0.00    +0.006 A 
ATOM     30  C   UNL     1     -38.322 164.136  -4.604  1.00  0.00    +0.006 A 
ATOM     31  C   UNL     1     -38.270 163.170  -5.620  1.00  0.00    -0.034 A 
BRANCH  31  32
ATOM     32  C   UNL     1     -37.879 163.554  -7.034  1.00  0.00    +0.120 C 
BRANCH  32  33
ATOM     33  N   UNL     1     -37.905 162.495  -8.044  1.00  0.00    -0.297 NA
ATOM     34  C   UNL     1     -38.426 162.883  -9.362  1.00  0.00    +0.100 C 
ATOM     35  C   UNL     1     -36.672 161.700  -8.134  1.00  0.00    +0.100 C 
ATOM     36  C   UNL     1     -37.383 162.828 -10.502  1.00  0.00    +0.099 C 
ATOM     37  C   UNL     1     -36.684 160.775  -9.372  1.00  0.00    +0.099 C 
ATOM     38  N   UNL     1     -36.692 161.528 -10.644  1.00  0.00    -0.304 NA
ATOM     39  C   UNL     1     -37.266 160.720 -11.715  1.00  0.00    +0.105 C 
ENDBRANCH  32  33
ENDBRANCH  31  32
ENDBRANCH   2  26
TORSDOF 7
ENDMDL
MODEL 4
REMARK VINA RESULT:   -10.863      6.313     12.489
REMARK INTER + INTRA:         -15.851
REMARK INTER:                 -15.513
REMARK INTRA:                  -0.338
REMARK UNBOUND:                -0.544
REMARK SMILES Cc1ccc(NC(=O)c2ccc(CN3CCN(C)CC3)cc2)cc1Nc1nccc(-c2cccnc2)n1
REMARK SMILES IDX 6 1 7 2 8 3 5 5 2 6 3 7 24 8 4 9 23 10 1 11 25 12 26 14
REMARK SMILES IDX 27 15 37 16 28 17 30 18 29 19 31 20 32 21 36 22 33 23 35 24
REMARK SMILES IDX 34 25 9 26 10 27 22 28 11 29 21 30 12 31 13 32 14 33 15 34
REMARK SMILES IDX 20 35 16 36 19 37 17 38 18 39
REMARK H PARENT 6 4 25 13
ROOT
ATOM      1  N   UNL     1     -37.633 161.168  -8.018  1.00  0.00    -0.322 N 
ATOM      2  C   UNL     1     -36.945 161.307  -9.211  1.00  0.00    +0.255 C 
ATOM      3  O   UNL     1     -36.548 162.350  -9.715  1.00  0.00    -0.269 OA
ATOM      4  H   UNL     1     -38.013 160.254  -7.808  1.00  0.00    +0.170 HD
ENDROOT
BRANCH   1   5
ATOM      5  C   UNL     1     -37.951 162.180  -7.087  1.00  0.00    +0.043 A 
ATOM      6  C   UNL     1     -38.602 164.060  -5.095  1.00  0.00    -0.027 A 
ATOM      7  C   UNL     1     -38.229 164.471  -6.385  1.00  0.00    +0.008 A 
ATOM      8  C   UNL     1     -38.658 162.683  -4.784  1.00  0.00    +0.046 A 
ATOM      9  C   UNL     1     -37.906 163.539  -7.373  1.00  0.00    +0.026 A 
ATOM     10  C   UNL     1     -38.322 161.769  -5.797  1.00  0.00    +0.052 A 
ATOM     11  C   UNL     1     -38.933 165.121  -4.078  1.00  0.00    +0.046 C 
BRANCH   8  12
ATOM     12  N   UNL     1     -39.020 162.272  -3.491  1.00  0.00    -0.324 N 
ATOM     13  H   UNL     1     -39.433 162.968  -2.888  1.00  0.00    +0.170 HD
BRANCH  12  14
ATOM     14  C   UNL     1     -38.988 161.064  -2.800  1.00  0.00    +0.227 A 
ATOM     15  N   UNL     1     -38.154 160.070  -3.129  1.00  0.00    -0.221 NA
ATOM     16  N   UNL     1     -39.855 160.983  -1.777  1.00  0.00    -0.213 NA
ATOM     17  C   UNL     1     -38.207 158.952  -2.388  1.00  0.00    +0.117 A 
ATOM     18  C   UNL     1     -39.885 159.852  -1.037  1.00  0.00    +0.077 A 
ATOM     19  C   UNL     1     -39.057 158.786  -1.324  1.00  0.00    +0.049 A 
BRANCH  18  20
ATOM     20  C   UNL     1     -40.856 159.841   0.070  1.00  0.00    +0.019 A 
ATOM     21  C   UNL     1     -40.670 159.102   1.249  1.00  0.00    +0.013 A 
ATOM     22  C   UNL     1     -42.035 160.589   0.007  1.00  0.00    +0.121 A 
ATOM     23  C   UNL     1     -41.628 159.128   2.263  1.00  0.00    +0.021 A 
ATOM     24  N   UNL     1     -42.989 160.632   0.974  1.00  0.00    -0.264 NA
ATOM     25  C   UNL     1     -42.761 159.900   2.080  1.00  0.00    +0.111 A 
ENDBRANCH  18  20
ENDBRANCH  12  14
ENDBRANCH   8  12
ENDBRANCH   1   5
BRANCH   2  26
ATOM     26  C   UNL     1     -36.719 160.033  -9.953  1.00  0.00    +0.040 A 
ATOM     27  C   UNL     1     -36.482 158.867  -9.219  1.00  0.00    +0.014 A 
ATOM     28  C   UNL     1     -36.762 159.974 -11.351  1.00  0.00    +0.014 A 
ATOM     29  C   UNL     1     -36.265 157.654  -9.877  1.00  0.00    +0.006 A 
ATOM     30  C   UNL     1     -36.545 158.757 -12.005  1.00  0.00    +0.006 A 
ATOM     31  C   UNL     1     -36.299 157.581 -11.278  1.00  0.00    -0.034 A 
BRANCH  31  32
ATOM     32  C   UNL     1     -36.067 156.265 -11.993  1.00  0.00    +0.120 C 
BRANCH  32  33
ATOM     33  N   UNL     1     -34.681 155.810 -12.118  1.00  0.00    -0.297 NA
ATOM     34  C   UNL     1     -33.652 156.842 -11.932  1.00  0.00    +0.100 C 
ATOM     35  C   UNL     1     -34.374 154.567 -11.398  1.00  0.00    +0.100 C 
ATOM     36  C   UNL     1     -32.755 156.632 -10.690  1.00  0.00    +0.099 C 
ATOM     37  C   UNL     1     -32.854 154.287 -11.375  1.00  0.00    +0.099 C 
ATOM     38  N   UNL     1     -32.099 155.309 -10.619  1.00  0.00    -0.304 NA
ATOM     39  C   UNL     1     -30.713 155.362 -11.074  1.00  0.00    +0.105 C 
ENDBRANCH  32  33
ENDBRANCH  31  32
ENDBRANCH   2  26
TORSDOF 7
ENDMDL
MODEL 5
REMARK VINA RESULT:   -10.810      2.402     12.434
REMARK INTER + INTRA:         -15.778
REMARK INTER:                 -15.061
REMARK INTRA:                  -0.717
REMARK UNBOUND:                -0.544
REMARK SMILES Cc1ccc(NC(=O)c2ccc(CN3CCN(C)CC3)cc2)cc1Nc1nccc(-c2cccnc2)n1
REMARK SMILES IDX 6 1 7 2 8 3 5 5 2 6 3 7 24 8 4 9 23 10 1 11 25 12 26 14
REMARK SMILES IDX 27 15 37 16 28 17 30 18 29 19 31 20 32 21 36 22 33 23 35 24
REMARK SMILES IDX 34 25 9 26 10 27 22 28 11 29 21 30 12 31 13 32 14 33 15 34
REMARK SMILES IDX 20 35 16 36 19 37 17 38 18 39
REMARK H PARENT 6 4 25 13
ROOT
ATOM      1  N   UNL     1     -37.618 158.005   2.313  1.00  0.00    -0.322 N 
ATOM      2  C   UNL     1     -38.857 158.415   1.853  1.00  0.00    +0.255 C 
ATOM      3  O   UNL     1     -39.910 158.419   2.480  1.00  0.00    -0.269 OA
ATOM      4  H   UNL     1     -36.874 157.931   1.630  1.00  0.00    +0.170 HD
ENDROOT
BRANCH   1   5
ATOM      5  C   UNL     1     -37.280 157.586   3.618  1.00  0.00    +0.043 A 
ATOM      6  C   UNL     1     -36.688 156.576   6.178  1.00  0.00    -0.027 A 
ATOM      7  C   UNL     1     -36.229 157.840   5.773  1.00  0.00    +0.008 A 
ATOM      8  C   UNL     1     -37.462 155.792   5.293  1.00  0.00    +0.046 A 
ATOM      9  C   UNL     1     -36.523 158.341   4.504  1.00  0.00    +0.026 A 
ATOM     10  C   UNL     1     -37.737 156.321   4.021  1.00  0.00    +0.052 A 
ATOM     11  C   UNL     1     -36.329 156.098   7.561  1.00  0.00    +0.046 C 
BRANCH   8  12
ATOM     12  N   UNL     1     -37.911 154.524   5.694  1.00  0.00    -0.324 N 
ATOM     13  H   UNL     1     -38.818 154.476   6.132  1.00  0.00    +0.170 HD
BRANCH  12  14
ATOM     14  C   UNL     1     -37.407 153.230   5.598  1.00  0.00    +0.227 A 
ATOM     15  N   UNL     1     -36.151 152.920   5.940  1.00  0.00    -0.221 NA
ATOM     16  N   UNL     1     -38.287 152.321   5.142  1.00  0.00    -0.213 NA
ATOM     17  C   UNL     1     -35.776 151.637   5.811  1.00  0.00    +0.117 A 
ATOM     18  C   UNL     1     -37.891 151.033   5.030  1.00  0.00    +0.077 A 
ATOM     19  C   UNL     1     -36.610 150.645   5.359  1.00  0.00    +0.049 A 
BRANCH  18  20
ATOM     20  C   UNL     1     -38.912 150.096   4.530  1.00  0.00    +0.019 A 
ATOM     21  C   UNL     1     -40.191 150.500   4.116  1.00  0.00    +0.013 A 
ATOM     22  C   UNL     1     -38.653 148.725   4.434  1.00  0.00    +0.121 A 
ATOM     23  C   UNL     1     -41.118 149.565   3.655  1.00  0.00    +0.021 A 
ATOM     24  N   UNL     1     -39.535 147.790   3.995  1.00  0.00    -0.264 NA
ATOM     25  C   UNL     1     -40.747 148.233   3.616  1.00  0.00    +0.111 A 
ENDBRANCH  18  20
ENDBRANCH  12  14
ENDBRANCH   8  12
ENDBRANCH   1   5
BRANCH   2  26
ATOM     26  C   UNL     1     -38.882 158.850   0.427  1.00  0.00    +0.040 A 
ATOM     27  C   UNL     1     -39.216 160.177   0.142  1.00  0.00    +0.014 A 
ATOM     28  C   UNL     1     -38.559 157.978  -0.619  1.00  0.00    +0.014 A 
ATOM     29  C   UNL     1     -39.252 160.625  -1.181  1.00  0.00    +0.006 A 
ATOM     30  C   UNL     1     -38.596 158.430  -1.941  1.00  0.00    +0.006 A 
ATOM     31  C   UNL     1     -38.936 159.759  -2.240  1.00  0.00    -0.034 A 
BRANCH  31  32
ATOM     32  C   UNL     1     -38.971 160.244  -3.676  1.00  0.00    +0.120 C 
BRANCH  32  33
ATOM     33  N   UNL     1     -38.415 161.572  -3.944  1.00  0.00    -0.297 NA
ATOM     34  C   UNL     1     -37.665 161.707  -5.200  1.00  0.00    +0.100 C 
ATOM     35  C   UNL     1     -39.345 162.686  -3.716  1.00  0.00    +0.100 C 
ATOM     36  C   UNL     1     -38.313 162.662  -6.230  1.00  0.00    +0.099 C 
ATOM     37  C   UNL     1     -38.773 164.019  -4.249  1.00  0.00    +0.099 C 
ATOM     38  N   UNL     1     -38.603 164.018  -5.717  1.00  0.00    -0.304 NA
ATOM     39  C   UNL     1     -37.581 164.981  -6.115  1.00  0.00    +0.105 C 
ENDBRANCH  32  33
ENDBRANCH  31  32
ENDBRANCH   2  26
TORSDOF 7
ENDMDL
MODEL 6
REMARK VINA RESULT:   -10.740      1.826     13.056
REMARK INTER + INTRA:         -15.679
REMARK INTER:                 -14.998
REMARK INTRA:                  -0.681
REMARK UNBOUND:                -0.544
REMARK SMILES Cc1ccc(NC(=O)c2ccc(CN3CCN(C)CC3)cc2)cc1Nc1nccc(-c2cccnc2)n1
REMARK SMILES IDX 6 1 7 2 8 3 5 5 2 6 3 7 24 8 4 9 23 10 1 11 25 12 26 14
REMARK SMILES IDX 27 15 37 16 28 17 30 18 29 19 31 20 32 21 36 22 33 23 35 24
REMARK SMILES IDX 34 25 9 26 10 27 22 28 11 29 21 30 12 31 13 32 14 33 15 34
REMARK SMILES IDX 20 35 16 36 19 37 17 38 18 39
REMARK H PARENT 6 4 25 13
ROOT
ATOM      1  N   UNL     1     -37.825 158.017   2.326  1.00  0.00    -0.322 N 
ATOM      2  C   UNL     1     -39.088 158.289   1.829  1.00  0.00    +0.255 C 
ATOM      3  O   UNL     1     -40.157 158.112   2.400  1.00  0.00    -0.269 OA
ATOM      4  H   UNL     1     -37.050 158.088   1.679  1.00  0.00    +0.170 HD
ENDROOT
BRANCH   1   5
ATOM      5  C   UNL     1     -37.490 157.560   3.619  1.00  0.00    +0.043 A 
ATOM      6  C   UNL     1     -36.832 156.466   6.128  1.00  0.00    -0.027 A 
ATOM      7  C   UNL     1     -36.808 157.854   5.913  1.00  0.00    +0.008 A 
ATOM      8  C   UNL     1     -37.193 155.598   5.074  1.00  0.00    +0.046 A 
ATOM      9  C   UNL     1     -37.134 158.397   4.669  1.00  0.00    +0.026 A 
ATOM     10  C   UNL     1     -37.512 156.173   3.832  1.00  0.00    +0.052 A 
ATOM     11  C   UNL     1     -36.463 155.951   7.495  1.00  0.00    +0.046 C 
BRANCH   8  12
ATOM     12  N   UNL     1     -37.206 154.210   5.286  1.00  0.00    -0.324 N 
ATOM     13  H   UNL     1     -38.099 153.745   5.227  1.00  0.00    +0.170 HD
BRANCH  12  14
ATOM     14  C   UNL     1     -36.232 153.246   5.533  1.00  0.00    +0.227 A 
ATOM     15  N   UNL     1     -34.943 153.431   5.223  1.00  0.00    -0.221 NA
ATOM     16  N   UNL     1     -36.692 152.124   6.111  1.00  0.00    -0.213 NA
ATOM     17  C   UNL     1     -34.091 152.434   5.513  1.00  0.00    +0.117 A 
ATOM     18  C   UNL     1     -35.815 151.137   6.404  1.00  0.00    +0.077 A 
ATOM     19  C   UNL     1     -34.474 151.259   6.108  1.00  0.00    +0.049 A 
BRANCH  18  20
ATOM     20  C   UNL     1     -36.393 149.942   7.043  1.00  0.00    +0.019 A 
ATOM     21  C   UNL     1     -35.800 149.292   8.137  1.00  0.00    +0.013 A 
ATOM     22  C   UNL     1     -37.592 149.385   6.588  1.00  0.00    +0.121 A 
ATOM     23  C   UNL     1     -36.393 148.160   8.698  1.00  0.00    +0.021 A 
ATOM     24  N   UNL     1     -38.191 148.283   7.109  1.00  0.00    -0.264 NA
ATOM     25  C   UNL     1     -37.576 147.697   8.153  1.00  0.00    +0.111 A 
ENDBRANCH  18  20
ENDBRANCH  12  14
ENDBRANCH   8  12
ENDBRANCH   1   5
BRANCH   2  26
ATOM     26  C   UNL     1     -39.111 158.811   0.433  1.00  0.00    +0.040 A 
ATOM     27  C   UNL     1     -38.474 158.069  -0.567  1.00  0.00    +0.014 A 
ATOM     28  C   UNL     1     -39.769 160.000   0.098  1.00  0.00    +0.014 A 
ATOM     29  C   UNL     1     -38.473 158.524  -1.887  1.00  0.00    +0.006 A 
ATOM     30  C   UNL     1     -39.765 160.452  -1.225  1.00  0.00    +0.006 A 
ATOM     31  C   UNL     1     -39.123 159.718  -2.235  1.00  0.00    -0.034 A 
BRANCH  31  32
ATOM     32  C   UNL     1     -39.125 160.211  -3.669  1.00  0.00    +0.120 C 
BRANCH  32  33
ATOM     33  N   UNL     1     -38.515 161.518  -3.925  1.00  0.00    -0.297 NA
ATOM     34  C   UNL     1     -37.781 161.642  -5.191  1.00  0.00    +0.100 C 
ATOM     35  C   UNL     1     -39.391 162.668  -3.663  1.00  0.00    +0.100 C 
ATOM     36  C   UNL     1     -38.403 162.641  -6.194  1.00  0.00    +0.099 C 
ATOM     37  C   UNL     1     -38.770 163.983  -4.183  1.00  0.00    +0.099 C 
ATOM     38  N   UNL     1     -38.624 164.000  -5.654  1.00  0.00    -0.304 NA
ATOM     39  C   UNL     1     -37.567 164.924  -6.054  1.00  0.00    +0.105 C 
ENDBRANCH  32  33
ENDBRANCH  31  32
ENDBRANCH   2  26
TORSDOF 7
ENDMDL
MODEL 7
REMARK VINA RESULT:   -10.518      2.300     13.041
REMARK INTER + INTRA:         -15.366
REMARK INTER:                 -15.372
REMARK INTRA:                   0.006
REMARK UNBOUND:                -0.544
REMARK SMILES Cc1ccc(NC(=O)c2ccc(CN3CCN(C)CC3)cc2)cc1Nc1nccc(-c2cccnc2)n1
REMARK SMILES IDX 6 1 7 2 8 3 5 5 2 6 3 7 24 8 4 9 23 10 1 11 25 12 26 14
REMARK SMILES IDX 27 15 37 16 28 17 30 18 29 19 31 20 32 21 36 22 33 23 35 24
REMARK SMILES IDX 34 25 9 26 10 27 22 28 11 29 21 30 12 31 13 32 14 33 15 34
REMARK SMILES IDX 20 35 16 36 19 37 17 38 18 39
REMARK H PARENT 6 4 25 13
ROOT
ATOM      1  N   UNL     1     -39.730 160.362  -1.910  1.00  0.00    -0.322 N 
ATOM      2  C   UNL     1     -39.253 161.633  -2.178  1.00  0.00    +0.255 C 
ATOM      3  O   UNL     1     -39.147 162.562  -1.386  1.00  0.00    -0.269 OA
ATOM      4  H   UNL     1     -39.885 159.751  -2.702  1.00  0.00    +0.170 HD
ENDROOT
BRANCH   1   5
ATOM      5  C   UNL     1     -40.120 159.836  -0.659  1.00  0.00    +0.043 A 
ATOM      6  C   UNL     1     -40.720 158.702   1.847  1.00  0.00    -0.027 A 
ATOM      7  C   UNL     1     -41.609 159.593   1.222  1.00  0.00    +0.008 A 
ATOM      8  C   UNL     1     -39.503 158.363   1.213  1.00  0.00    +0.046 A 
ATOM      9  C   UNL     1     -41.311 160.155  -0.020  1.00  0.00    +0.026 A 
ATOM     10  C   UNL     1     -39.230 158.948  -0.034  1.00  0.00    +0.052 A 
ATOM     11  C   UNL     1     -41.104 158.138   3.190  1.00  0.00    +0.046 C 
BRANCH   8  12
ATOM     12  N   UNL     1     -38.610 157.482   1.843  1.00  0.00    -0.324 N 
ATOM     13  H   UNL     1     -38.345 156.654   1.332  1.00  0.00    +0.170 HD
BRANCH  12  14
ATOM     14  C   UNL     1     -37.923 157.481   3.054  1.00  0.00    +0.227 A 
ATOM     15  N   UNL     1     -37.633 158.608   3.717  1.00  0.00    -0.221 NA
ATOM     16  N   UNL     1     -37.584 156.261   3.502  1.00  0.00    -0.213 NA
ATOM     17  C   UNL     1     -36.971 158.485   4.879  1.00  0.00    +0.117 A 
ATOM     18  C   UNL     1     -36.927 156.160   4.680  1.00  0.00    +0.077 A 
ATOM     19  C   UNL     1     -36.592 157.279   5.412  1.00  0.00    +0.049 A 
BRANCH  18  20
ATOM     20  C   UNL     1     -36.596 154.790   5.108  1.00  0.00    +0.019 A 
ATOM     21  C   UNL     1     -37.505 153.722   5.039  1.00  0.00    +0.013 A 
ATOM     22  C   UNL     1     -35.331 154.473   5.611  1.00  0.00    +0.121 A 
ATOM     23  C   UNL     1     -37.135 152.445   5.464  1.00  0.00    +0.021 A 
ATOM     24  N   UNL     1     -34.942 153.243   6.037  1.00  0.00    -0.264 NA
ATOM     25  C   UNL     1     -35.855 152.258   5.952  1.00  0.00    +0.111 A 
ENDBRANCH  18  20
ENDBRANCH  12  14
ENDBRANCH   8  12
ENDBRANCH   1   5
BRANCH   2  26
ATOM     26  C   UNL     1     -38.875 161.872  -3.600  1.00  0.00    +0.040 A 
ATOM     27  C   UNL     1     -39.185 160.890  -4.546  1.00  0.00    +0.014 A 
ATOM     28  C   UNL     1     -38.246 163.053  -4.011  1.00  0.00    +0.014 A 
ATOM     29  C   UNL     1     -38.847 161.075  -5.889  1.00  0.00    +0.006 A 
ATOM     30  C   UNL     1     -37.910 163.234  -5.356  1.00  0.00    +0.006 A 
ATOM     31  C   UNL     1     -38.211 162.252  -6.312  1.00  0.00    -0.034 A 
BRANCH  31  32
ATOM     32  C   UNL     1     -37.847 162.455  -7.770  1.00  0.00    +0.120 C 
BRANCH  32  33
ATOM     33  N   UNL     1     -37.436 163.802  -8.172  1.00  0.00    -0.297 NA
ATOM     34  C   UNL     1     -37.193 163.992  -9.609  1.00  0.00    +0.100 C 
ATOM     35  C   UNL     1     -38.231 164.889  -7.583  1.00  0.00    +0.100 C 
ATOM     36  C   UNL     1     -38.178 164.965 -10.299  1.00  0.00    +0.099 C 
ATOM     37  C   UNL     1     -37.901 166.250  -8.237  1.00  0.00    +0.099 C 
ATOM     38  N   UNL     1     -38.273 166.298  -9.667  1.00  0.00    -0.304 NA
ATOM     39  C   UNL     1     -37.472 167.294 -10.372  1.00  0.00    +0.105 C 
ENDBRANCH  32  33
ENDBRANCH  31  32
ENDBRANCH   2  26
TORSDOF 7
ENDMDL
MODEL 8
REMARK VINA RESULT:   -10.382      6.327     12.406
REMARK INTER + INTRA:         -15.174
REMARK INTER:                 -14.933
REMARK INTRA:                  -0.241
REMARK UNBOUND:                -0.544
REMARK SMILES Cc1ccc(NC(=O)c2ccc(CN3CCN(C)CC3)cc2)cc1Nc1nccc(-c2cccnc2)n1
REMARK SMILES IDX 6 1 7 2 8 3 5 5 2 6 3 7 24 8 4 9 23 10 1 11 25 12 26 14
REMARK SMILES IDX 27 15 37 16 28 17 30 18 29 19 31 20 32 21 36 22 33 23 35 24
REMARK SMILES IDX 34 25 9 26 10 27 22 28 11 29 21 30 12 31 13 32 14 33 15 34
REMARK SMILES IDX 20 35 16 36 19 37 17 38 18 39
REMARK H PARENT 6 4 25 13
ROOT
ATOM      1  N   UNL     1     -37.321 161.277  -7.803  1.00  0.00    -0.322 N 
ATOM      2  C   UNL     1     -37.315 161.359  -9.184  1.00  0.00    +0.255 C 
ATOM      3  O   UNL     1     -37.749 162.277  -9.870  1.00  0.00    -0.269 OA
ATOM      4  H   UNL     1     -37.052 160.393  -7.392  1.00  0.00    +0.170 HD
ENDROOT
BRANCH   1   5
ATOM      5  C   UNL     1     -37.747 162.262  -6.886  1.00  0.00    +0.043 A 
ATOM      6  C   UNL     1     -38.601 164.087  -4.919  1.00  0.00    -0.027 A 
ATOM      7  C   UNL     1     -38.259 164.520  -6.211  1.00  0.00    +0.008 A 
ATOM      8  C   UNL     1     -38.520 162.715  -4.593  1.00  0.00    +0.046 A 
ATOM      9  C   UNL     1     -37.836 163.616  -7.186  1.00  0.00    +0.026 A 
ATOM     10  C   UNL     1     -38.086 161.829  -5.594  1.00  0.00    +0.052 A 
ATOM     11  C   UNL     1     -39.045 165.120  -3.916  1.00  0.00    +0.046 C 
BRANCH   8  12
ATOM     12  N   UNL     1     -38.851 162.283  -3.299  1.00  0.00    -0.324 N 
ATOM     13  H   UNL     1     -39.150 162.988  -2.643  1.00  0.00    +0.170 HD
BRANCH  12  14
ATOM     14  C   UNL     1     -38.911 161.046  -2.663  1.00  0.00    +0.227 A 
ATOM     15  N   UNL     1     -38.133 160.016  -3.018  1.00  0.00    -0.221 NA
ATOM     16  N   UNL     1     -39.806 160.977  -1.663  1.00  0.00    -0.213 NA
ATOM     17  C   UNL     1     -38.275 158.872  -2.329  1.00  0.00    +0.117 A 
ATOM     18  C   UNL     1     -39.924 159.818  -0.975  1.00  0.00    +0.077 A 
ATOM     19  C   UNL     1     -39.158 158.716  -1.292  1.00  0.00    +0.049 A 
BRANCH  18  20
ATOM     20  C   UNL     1     -40.920 159.821   0.110  1.00  0.00    +0.019 A 
ATOM     21  C   UNL     1     -40.803 159.030   1.263  1.00  0.00    +0.013 A 
ATOM     22  C   UNL     1     -42.055 160.635   0.049  1.00  0.00    +0.121 A 
ATOM     23  C   UNL     1     -41.782 159.073   2.257  1.00  0.00    +0.021 A 
ATOM     24  N   UNL     1     -43.027 160.696   0.996  1.00  0.00    -0.264 NA
ATOM     25  C   UNL     1     -42.866 159.913   2.078  1.00  0.00    +0.111 A 
ENDBRANCH  18  20
ENDBRANCH  12  14
ENDBRANCH   8  12
ENDBRANCH   1   5
BRANCH   2  26
ATOM     26  C   UNL     1     -36.752 160.165  -9.878  1.00  0.00    +0.040 A 
ATOM     27  C   UNL     1     -36.200 159.142  -9.102  1.00  0.00    +0.014 A 
ATOM     28  C   UNL     1     -36.784 160.035 -11.272  1.00  0.00    +0.014 A 
ATOM     29  C   UNL     1     -35.661 158.007  -9.713  1.00  0.00    +0.006 A 
ATOM     30  C   UNL     1     -36.243 158.898 -11.879  1.00  0.00    +0.006 A 
ATOM     31  C   UNL     1     -35.681 157.868 -11.109  1.00  0.00    -0.034 A 
BRANCH  31  32
ATOM     32  C   UNL     1     -35.099 156.635 -11.774  1.00  0.00    +0.120 C 
BRANCH  32  33
ATOM     33  N   UNL     1     -36.036 155.570 -12.137  1.00  0.00    -0.297 NA
ATOM     34  C   UNL     1     -35.524 154.199 -12.006  1.00  0.00    +0.100 C 
ATOM     35  C   UNL     1     -37.388 155.725 -11.583  1.00  0.00    +0.100 C 
ATOM     36  C   UNL     1     -36.239 153.351 -10.929  1.00  0.00    +0.099 C 
ATOM     37  C   UNL     1     -38.239 154.453 -11.803  1.00  0.00    +0.099 C 
ATOM     38  N   UNL     1     -37.709 153.282 -11.073  1.00  0.00    -0.304 NA
ATOM     39  C   UNL     1     -38.136 152.042 -11.714  1.00  0.00    +0.105 C 
ENDBRANCH  32  33
ENDBRANCH  31  32
ENDBRANCH   2  26
TORSDOF 7
ENDMDL
MODEL 9
REMARK VINA RESULT:   -10.338      6.335     10.741
REMARK INTER + INTRA:         -15.112
REMARK INTER:                 -14.386
REMARK INTRA:                  -0.725
REMARK UNBOUND:                -0.544
REMARK SMILES Cc1ccc(NC(=O)c2ccc(CN3CCN(C)CC3)cc2)cc1Nc1nccc(-c2cccnc2)n1
REMARK SMILES IDX 6 1 7 2 8 3 5 5 2 6 3 7 24 8 4 9 23 10 1 11 25 12 26 14
REMARK SMILES IDX 27 15 37 16 28 17 30 18 29 19 31 20 32 21 36 22 33 23 35 24
REMARK SMILES IDX 34 25 9 26 10 27 22 28 11 29 21 30 12 31 13 32 14 33 15 34
REMARK SMILES IDX 20 35 16 36 19 37 17 38 18 39
REMARK H PARENT 6 4 25 13
ROOT
ATOM      1  N   UNL     1     -38.252 161.574  -6.660  1.00  0.00    -0.322 N 
ATOM      2  C   UNL     1     -37.962 162.341  -5.545  1.00  0.00    +0.255 C 
ATOM      3  O   UNL     1     -37.264 163.347  -5.505  1.00  0.00    -0.269 OA
ATOM      4  H   UNL     1     -38.729 160.696  -6.504  1.00  0.00    +0.170 HD
ENDROOT
BRANCH   1   5
ATOM      5  C   UNL     1     -37.879 161.827  -7.998  1.00  0.00    +0.043 A 
ATOM      6  C   UNL     1     -37.072 162.149 -10.676  1.00  0.00    -0.027 A 
ATOM      7  C   UNL     1     -37.781 163.159 -10.006  1.00  0.00    +0.008 A 
ATOM      8  C   UNL     1     -36.752 160.949 -10.001  1.00  0.00    +0.046 A 
ATOM      9  C   UNL     1     -38.181 163.000  -8.679  1.00  0.00    +0.026 A 
ATOM     10  C   UNL     1     -37.173 160.816  -8.667  1.00  0.00    +0.052 A 
ATOM     11  C   UNL     1     -36.676 162.387 -12.110  1.00  0.00    +0.046 C 
BRANCH   8  12
ATOM     12  N   UNL     1     -36.053 159.934 -10.674  1.00  0.00    -0.324 N 
ATOM     13  H   UNL     1     -35.274 160.217 -11.249  1.00  0.00    +0.170 HD
BRANCH  12  14
ATOM     14  C   UNL     1     -36.144 158.545 -10.721  1.00  0.00    +0.227 A 
ATOM     15  N   UNL     1     -37.318 157.901 -10.716  1.00  0.00    -0.221 NA
ATOM     16  N   UNL     1     -34.961 157.911 -10.779  1.00  0.00    -0.213 NA
ATOM     17  C   UNL     1     -37.284 156.560 -10.770  1.00  0.00    +0.117 A 
ATOM     18  C   UNL     1     -34.951 156.560 -10.844  1.00  0.00    +0.077 A 
ATOM     19  C   UNL     1     -36.122 155.833 -10.837  1.00  0.00    +0.049 A 
BRANCH  18  20
ATOM     20  C   UNL     1     -33.618 155.937 -10.912  1.00  0.00    +0.019 A 
ATOM     21  C   UNL     1     -32.424 156.675 -10.934  1.00  0.00    +0.013 A 
ATOM     22  C   UNL     1     -33.468 154.547 -10.953  1.00  0.00    +0.121 A 
ATOM     23  C   UNL     1     -31.189 156.029 -11.004  1.00  0.00    +0.021 A 
ATOM     24  N   UNL     1     -32.282 153.889 -11.026  1.00  0.00    -0.264 NA
ATOM     25  C   UNL     1     -31.171 154.647 -11.049  1.00  0.00    +0.111 A 
ENDBRANCH  18  20
ENDBRANCH  12  14
ENDBRANCH   8  12
ENDBRANCH   1   5
BRANCH   2  26
ATOM     26  C   UNL     1     -38.544 161.834  -4.270  1.00  0.00    +0.040 A 
ATOM     27  C   UNL     1     -38.853 162.756  -3.265  1.00  0.00    +0.014 A 
ATOM     28  C   UNL     1     -38.807 160.474  -4.065  1.00  0.00    +0.014 A 
ATOM     29  C   UNL     1     -39.399 162.322  -2.055  1.00  0.00    +0.006 A 
ATOM     30  C   UNL     1     -39.354 160.044  -2.853  1.00  0.00    +0.006 A 
ATOM     31  C   UNL     1     -39.662 160.961  -1.835  1.00  0.00    -0.034 A 
BRANCH  31  32
ATOM     32  C   UNL     1     -40.258 160.488  -0.523  1.00  0.00    +0.120 C 
BRANCH  32  33
ATOM     33  N   UNL     1     -39.334 159.930   0.465  1.00  0.00    -0.297 NA
ATOM     34  C   UNL     1     -39.823 159.901   1.851  1.00  0.00    +0.100 C 
ATOM     35  C   UNL     1     -38.691 158.671   0.065  1.00  0.00    +0.100 C 
ATOM     36  C   UNL     1     -40.019 158.479   2.427  1.00  0.00    +0.099 C 
ATOM     37  C   UNL     1     -37.929 158.024   1.243  1.00  0.00    +0.099 C 
ATOM     38  N   UNL     1     -38.828 157.608   2.341  1.00  0.00    -0.304 NA
ATOM     39  C   UNL     1     -38.100 157.552   3.605  1.00  0.00    +0.105 C 
ENDBRANCH  32  33
ENDBRANCH  31  32
ENDBRANCH   2  26
TORSDOF 7
ENDMDL
MODEL 10
REMARK VINA RESULT:   -10.317      3.328      6.319
REMARK INTER + INTRA:         -15.083
REMARK INTER:                 -14.290
REMARK INTRA:                  -0.793
REMARK UNBOUND:                -0.544
REMARK SMILES Cc1ccc(NC(=O)c2ccc(CN3CCN(C)CC3)cc2)cc1Nc1nccc(-c2cccnc2)n1
REMARK SMILES IDX 6 1 7 2 8 3 5 5 2 6 3 7 24 8 4 9 23 10 1 11 25 12 26 14
REMARK SMILES IDX 27 15 37 16 28 17 30 18 29 19 31 20 32 21 36 22 33 23 35 24
REMARK SMILES IDX 34 25 9 26 10 27 22 28 11 29 21 30 12 31 13 32 14 33 15 34
REMARK SMILES IDX 20 35 16 36 19 37 17 38 18 39
REMARK H PARENT 6 4 25 13
ROOT
ATOM      1  N   UNL     1     -37.474 153.421   4.608  1.00  0.00    -0.322 N 
ATOM      2  C   UNL     1     -37.993 152.465   5.463  1.00  0.00    +0.255 C 
ATOM      3  O   UNL     1     -38.297 152.617   6.640  1.00  0.00    -0.269 OA
ATOM      4  H   UNL     1     -37.145 153.104   3.705  1.00  0.00    +0.170 HD
ENDROOT
BRANCH   1   5
ATOM      5  C   UNL     1     -37.262 154.791   4.877  1.00  0.00    +0.043 A 
ATOM      6  C   UNL     1     -36.914 157.561   5.239  1.00  0.00    -0.027 A 
ATOM      7  C   UNL     1     -36.641 156.654   6.277  1.00  0.00    +0.008 A 
ATOM      8  C   UNL     1     -37.369 157.084   3.989  1.00  0.00    +0.046 A 
ATOM      9  C   UNL     1     -36.813 155.281   6.097  1.00  0.00    +0.026 A 
ATOM     10  C   UNL     1     -37.537 155.697   3.841  1.00  0.00    +0.052 A 
ATOM     11  C   UNL     1     -36.710 159.030   5.506  1.00  0.00    +0.046 C 
BRANCH   8  12
ATOM     12  N   UNL     1     -37.653 157.991   2.956  1.00  0.00    -0.324 N 
ATOM     13  H   UNL     1     -36.867 158.435   2.508  1.00  0.00    +0.170 HD
BRANCH  12  14
ATOM     14  C   UNL     1     -38.815 158.430   2.329  1.00  0.00    +0.227 A 
ATOM     15  N   UNL     1     -40.021 158.333   2.900  1.00  0.00    -0.221 NA
ATOM     16  N   UNL     1     -38.624 158.962   1.110  1.00  0.00    -0.213 NA
ATOM     17  C   UNL     1     -41.072 158.796   2.203  1.00  0.00    +0.117 A 
ATOM     18  C   UNL     1     -39.695 159.432   0.430  1.00  0.00    +0.077 A 
ATOM     19  C   UNL     1     -40.967 159.359   0.957  1.00  0.00    +0.049 A 
BRANCH  18  20
ATOM     20  C   UNL     1     -39.404 160.007  -0.895  1.00  0.00    +0.019 A 
ATOM     21  C   UNL     1     -38.910 159.251  -1.970  1.00  0.00    +0.013 A 
ATOM     22  C   UNL     1     -39.616 161.363  -1.159  1.00  0.00    +0.121 A 
ATOM     23  C   UNL     1     -38.650 159.853  -3.202  1.00  0.00    +0.021 A 
ATOM     24  N   UNL     1     -39.368 161.980  -2.344  1.00  0.00    -0.264 NA
ATOM     25  C   UNL     1     -38.891 161.208  -3.338  1.00  0.00    +0.111 A 
ENDBRANCH  18  20
ENDBRANCH  12  14
ENDBRANCH   8  12
ENDBRANCH   1   5
BRANCH   2  26
ATOM     26  C   UNL     1     -38.145 151.108   4.864  1.00  0.00    +0.040 A 
ATOM     27  C   UNL     1     -39.300 150.830   4.128  1.00  0.00    +0.014 A 
ATOM     28  C   UNL     1     -37.157 150.125   4.999  1.00  0.00    +0.014 A 
ATOM     29  C   UNL     1     -39.481 149.570   3.552  1.00  0.00    +0.006 A 
ATOM     30  C   UNL     1     -37.342 148.866   4.420  1.00  0.00    +0.006 A 
ATOM     31  C   UNL     1     -38.502 148.574   3.685  1.00  0.00    -0.034 A 
BRANCH  31  32
ATOM     32  C   UNL     1     -38.695 147.207   3.057  1.00  0.00    +0.120 C 
BRANCH  32  33
ATOM     33  N   UNL     1     -37.964 146.935   1.818  1.00  0.00    -0.297 NA
ATOM     34  C   UNL     1     -37.907 148.042   0.853  1.00  0.00    +0.100 C 
ATOM     35  C   UNL     1     -36.662 146.278   2.003  1.00  0.00    +0.100 C 
ATOM     36  C   UNL     1     -36.488 148.605   0.612  1.00  0.00    +0.099 C 
ATOM     37  C   UNL     1     -35.852 146.246   0.687  1.00  0.00    +0.099 C 
ATOM     38  N   UNL     1     -35.482 147.597   0.215  1.00  0.00    -0.304 NA
ATOM     39  C   UNL     1     -35.256 147.591  -1.227  1.00  0.00    +0.105 C 
ENDBRANCH  32  33
ENDBRANCH  31  32
ENDBRANCH   2  26
TORSDOF 7
ENDMDL
