REMARK SMILES CN(C)c1ccc(/C=C2\C(=O)Nc3ccccc32)c2ccccc12
REMARK SMILES IDX 4 1 5 2 6 3 7 4 19 5 20 6 21 7 22 8 23 9 24 10 2 11 1 12
REMARK SMILES IDX 3 13 8 14 9 15 10 16 18 17 11 18 12 19 17 20 13 21 16 22
REMARK SMILES IDX 14 23 15 24
REMARK H PARENT 12 25
ROOT
ATOM      1  C   UNL     1      -2.924   0.336   0.269  1.00  0.00    +0.044 A 
ATOM      2  C   UNL     1      -2.113   1.455   0.510  1.00  0.00    +0.027 A 
ATOM      3  C   UNL     1      -0.734   1.324   0.644  1.00  0.00    +0.011 A 
ATOM      4  C   UNL     1      -0.125   0.070   0.525  1.00  0.00    -0.017 A 
ATOM      5  C   UNL     1      -0.909  -1.087   0.278  1.00  0.00    -0.009 A 
ATOM      6  C   UNL     1      -0.345  -2.381   0.147  1.00  0.00    +0.009 A 
ATOM      7  C   UNL     1      -1.132  -3.510  -0.086  1.00  0.00    +0.001 A 
ATOM      8  C   UNL     1      -2.506  -3.377  -0.194  1.00  0.00    +0.001 A 
ATOM      9  C   UNL     1      -3.088  -2.115  -0.075  1.00  0.00    +0.011 A 
ATOM     10  C   UNL     1      -2.319  -0.950   0.153  1.00  0.00    +0.006 A 
ENDROOT
BRANCH   1  11
ATOM     11  N   UNL     1      -4.330   0.473   0.094  1.00  0.00    -0.377 N 
ATOM     12  C   UNL     1      -4.636   0.835  -1.295  1.00  0.00    +0.143 C 
ATOM     13  C   UNL     1      -4.991   1.311   1.094  1.00  0.00    +0.143 C 
ENDBRANCH   1  11
BRANCH   4  14
ATOM     14  C   UNL     1       1.334  -0.004   0.710  1.00  0.00    +0.023 C 
ATOM     15  C   UNL     1       2.259   0.440  -0.154  1.00  0.00    +0.050 C 
ATOM     16  C   UNL     1       2.034   1.107  -1.490  1.00  0.00    +0.256 C 
ATOM     17  C   UNL     1       3.711   0.342   0.036  1.00  0.00    +0.011 A 
ATOM     18  O   UNL     1       0.987   1.393  -2.035  1.00  0.00    -0.269 OA
ATOM     19  N   UNL     1       3.309   1.345  -1.986  1.00  0.00    -0.321 N 
ATOM     20  C   UNL     1       4.506  -0.162   1.050  1.00  0.00    +0.011 A 
ATOM     21  C   UNL     1       4.291   0.904  -1.105  1.00  0.00    +0.049 A 
ATOM     22  C   UNL     1       5.895  -0.091   0.894  1.00  0.00    +0.001 A 
ATOM     23  C   UNL     1       5.657   0.985  -1.281  1.00  0.00    +0.027 A 
ATOM     24  C   UNL     1       6.465   0.477  -0.261  1.00  0.00    +0.002 A 
ATOM     25  H   UNL     1       3.467   1.786  -2.878  1.00  0.00    +0.170 HD
ENDBRANCH   4  14
TORSDOF 2
