MODEL 1
REMARK VINA RESULT:    -9.381      0.000      0.000
REMARK INTER + INTRA:         -10.849
REMARK INTER:                 -10.478
REMARK INTRA:                  -0.371
REMARK UNBOUND:                -0.371
REMARK SMILES CN(C)c1ccc(/C=C2\C(=O)Nc3ccccc32)c2ccccc12
REMARK SMILES IDX 4 1 5 2 6 3 7 4 19 5 20 6 21 7 22 8 23 9 24 10 2 11 1 12
REMARK SMILES IDX 3 13 8 14 9 15 10 16 18 17 11 18 12 19 17 20 13 21 16 22
REMARK SMILES IDX 14 23 15 24
REMARK H PARENT 12 25
ROOT
ATOM      1  C   UNL     1     -38.022 161.945  -6.429  1.00  0.00    +0.044 A 
ATOM      2  C   UNL     1     -38.552 160.680  -6.135  1.00  0.00    +0.027 A 
ATOM      3  C   UNL     1     -39.245 160.452  -4.950  1.00  0.00    +0.011 A 
ATOM      4  C   UNL     1     -39.439 161.489  -4.031  1.00  0.00    -0.017 A 
ATOM      5  C   UNL     1     -38.921 162.785  -4.291  1.00  0.00    -0.009 A 
ATOM      6  C   UNL     1     -39.090 163.871  -3.397  1.00  0.00    +0.009 A 
ATOM      7  C   UNL     1     -38.565 165.137  -3.664  1.00  0.00    +0.001 A 
ATOM      8  C   UNL     1     -37.856 165.351  -4.834  1.00  0.00    +0.001 A 
ATOM      9  C   UNL     1     -37.679 164.302  -5.735  1.00  0.00    +0.011 A 
ATOM     10  C   UNL     1     -38.205 163.010  -5.499  1.00  0.00    +0.006 A 
ENDROOT
BRANCH   1  11
ATOM     11  N   UNL     1     -37.346 162.190  -7.658  1.00  0.00    -0.377 N 
ATOM     12  C   UNL     1     -38.308 162.573  -8.699  1.00  0.00    +0.143 C 
ATOM     13  C   UNL     1     -36.411 161.140  -8.060  1.00  0.00    +0.143 C 
ENDBRANCH   1  11
BRANCH   4  14
ATOM     14  C   UNL     1     -40.152 161.173  -2.781  1.00  0.00    +0.023 C 
ATOM     15  C   UNL     1     -39.685 160.410  -1.782  1.00  0.00    +0.050 C 
ATOM     16  C   UNL     1     -38.350 159.709  -1.698  1.00  0.00    +0.256 C 
ATOM     17  C   UNL     1     -40.415 160.088  -0.550  1.00  0.00    +0.011 A 
ATOM     18  O   UNL     1     -37.433 159.712  -2.495  1.00  0.00    -0.269 OA
ATOM     19  N   UNL     1     -38.376 159.043  -0.480  1.00  0.00    -0.321 N 
ATOM     20  C   UNL     1     -41.663 160.437  -0.066  1.00  0.00    +0.011 A 
ATOM     21  C   UNL     1     -39.573 159.258   0.195  1.00  0.00    +0.049 A 
ATOM     22  C   UNL     1     -42.048 159.933   1.182  1.00  0.00    +0.001 A 
ATOM     23  C   UNL     1     -39.931 158.750   1.427  1.00  0.00    +0.027 A 
ATOM     24  C   UNL     1     -41.190 159.097   1.921  1.00  0.00    +0.002 A 
ATOM     25  H   UNL     1     -37.605 158.481  -0.156  1.00  0.00    +0.170 HD
ENDBRANCH   4  14
TORSDOF 2
ENDMDL
MODEL 2
REMARK VINA RESULT:    -9.043      2.203      7.542
REMARK INTER + INTRA:         -10.472
REMARK INTER:                  -9.772
REMARK INTRA:                  -0.700
REMARK UNBOUND:                -0.371
REMARK SMILES CN(C)c1ccc(/C=C2\C(=O)Nc3ccccc32)c2ccccc12
REMARK SMILES IDX 4 1 5 2 6 3 7 4 19 5 20 6 21 7 22 8 23 9 24 10 2 11 1 12
REMARK SMILES IDX 3 13 8 14 9 15 10 16 18 17 11 18 12 19 17 20 13 21 16 22
REMARK SMILES IDX 14 23 15 24
REMARK H PARENT 12 25
ROOT
ATOM      1  C   UNL     1     -39.000 158.666   1.574  1.00  0.00    +0.044 A 
ATOM      2  C   UNL     1     -37.845 158.757   0.783  1.00  0.00    +0.027 A 
ATOM      3  C   UNL     1     -37.855 159.458  -0.420  1.00  0.00    +0.011 A 
ATOM      4  C   UNL     1     -39.017 160.102  -0.857  1.00  0.00    -0.017 A 
ATOM      5  C   UNL     1     -40.206 160.037  -0.084  1.00  0.00    -0.009 A 
ATOM      6  C   UNL     1     -41.411 160.672  -0.478  1.00  0.00    +0.009 A 
ATOM      7  C   UNL     1     -42.574 160.590   0.289  1.00  0.00    +0.001 A 
ATOM      8  C   UNL     1     -42.565 159.870   1.472  1.00  0.00    +0.001 A 
ATOM      9  C   UNL     1     -41.392 159.241   1.888  1.00  0.00    +0.011 A 
ATOM     10  C   UNL     1     -40.195 159.310   1.138  1.00  0.00    +0.006 A 
ENDROOT
BRANCH   1  11
ATOM     11  N   UNL     1     -38.982 157.981   2.822  1.00  0.00    -0.377 N 
ATOM     12  C   UNL     1     -38.261 158.774   3.825  1.00  0.00    +0.143 C 
ATOM     13  C   UNL     1     -38.563 156.582   2.745  1.00  0.00    +0.143 C 
ENDBRANCH   1  11
BRANCH   4  14
ATOM     14  C   UNL     1     -38.969 160.798  -2.153  1.00  0.00    +0.023 C 
ATOM     15  C   UNL     1     -38.837 162.122  -2.330  1.00  0.00    +0.050 C 
ATOM     16  C   UNL     1     -38.708 163.189  -1.269  1.00  0.00    +0.256 C 
ATOM     17  C   UNL     1     -38.810 162.804  -3.629  1.00  0.00    +0.011 A 
ATOM     18  O   UNL     1     -38.676 163.067  -0.061  1.00  0.00    -0.269 OA
ATOM     19  N   UNL     1     -38.623 164.381  -1.976  1.00  0.00    -0.321 N 
ATOM     20  C   UNL     1     -38.884 162.361  -4.937  1.00  0.00    +0.011 A 
ATOM     21  C   UNL     1     -38.680 164.167  -3.349  1.00  0.00    +0.049 A 
ATOM     22  C   UNL     1     -38.827 163.316  -5.959  1.00  0.00    +0.001 A 
ATOM     23  C   UNL     1     -38.622 165.127  -4.339  1.00  0.00    +0.027 A 
ATOM     24  C   UNL     1     -38.697 164.686  -5.662  1.00  0.00    +0.002 A 
ATOM     25  H   UNL     1     -38.530 165.274  -1.518  1.00  0.00    +0.170 HD
ENDBRANCH   4  14
TORSDOF 2
ENDMDL
MODEL 3
REMARK VINA RESULT:    -8.637      1.595      7.370
REMARK INTER + INTRA:         -10.018
REMARK INTER:                 -11.039
REMARK INTRA:                   1.021
REMARK UNBOUND:                -0.371
REMARK SMILES CN(C)c1ccc(/C=C2\C(=O)Nc3ccccc32)c2ccccc12
REMARK SMILES IDX 4 1 5 2 6 3 7 4 19 5 20 6 21 7 22 8 23 9 24 10 2 11 1 12
REMARK SMILES IDX 3 13 8 14 9 15 10 16 18 17 11 18 12 19 17 20 13 21 16 22
REMARK SMILES IDX 14 23 15 24
REMARK H PARENT 12 25
ROOT
ATOM      1  C   UNL     1     -39.144 158.838   1.136  1.00  0.00    +0.044 A 
ATOM      2  C   UNL     1     -37.942 159.218   0.522  1.00  0.00    +0.027 A 
ATOM      3  C   UNL     1     -37.903 160.276  -0.382  1.00  0.00    +0.011 A 
ATOM      4  C   UNL     1     -39.065 160.993  -0.685  1.00  0.00    -0.017 A 
ATOM      5  C   UNL     1     -40.301 160.643  -0.083  1.00  0.00    -0.009 A 
ATOM      6  C   UNL     1     -41.508 161.336  -0.353  1.00  0.00    +0.009 A 
ATOM      7  C   UNL     1     -42.718 160.972   0.240  1.00  0.00    +0.001 A 
ATOM      8  C   UNL     1     -42.755 159.904   1.120  1.00  0.00    +0.001 A 
ATOM      9  C   UNL     1     -41.582 159.207   1.409  1.00  0.00    +0.011 A 
ATOM     10  C   UNL     1     -40.339 159.555   0.831  1.00  0.00    +0.006 A 
ENDROOT
BRANCH   1  11
ATOM     11  N   UNL     1     -39.179 157.781   2.090  1.00  0.00    -0.377 N 
ATOM     12  C   UNL     1     -40.295 157.976   3.023  1.00  0.00    +0.143 C 
ATOM     13  C   UNL     1     -37.898 157.499   2.735  1.00  0.00    +0.143 C 
ENDBRANCH   1  11
BRANCH   4  14
ATOM     14  C   UNL     1     -38.961 162.079  -1.674  1.00  0.00    +0.023 C 
ATOM     15  C   UNL     1     -38.872 161.925  -3.004  1.00  0.00    +0.050 C 
ATOM     16  C   UNL     1     -38.858 160.635  -3.788  1.00  0.00    +0.256 C 
ATOM     17  C   UNL     1     -38.750 163.018  -3.976  1.00  0.00    +0.011 A 
ATOM     18  O   UNL     1     -38.946 159.493  -3.383  1.00  0.00    -0.269 OA
ATOM     19  N   UNL     1     -38.728 161.027  -5.114  1.00  0.00    -0.321 N 
ATOM     20  C   UNL     1     -38.709 164.396  -3.859  1.00  0.00    +0.011 A 
ATOM     21  C   UNL     1     -38.665 162.411  -5.233  1.00  0.00    +0.049 A 
ATOM     22  C   UNL     1     -38.581 165.152  -5.030  1.00  0.00    +0.001 A 
ATOM     23  C   UNL     1     -38.538 163.136  -6.401  1.00  0.00    +0.027 A 
ATOM     24  C   UNL     1     -38.496 164.528  -6.289  1.00  0.00    +0.002 A 
ATOM     25  H   UNL     1     -38.689 160.364  -5.871  1.00  0.00    +0.170 HD
ENDBRANCH   4  14
TORSDOF 2
ENDMDL
MODEL 4
REMARK VINA RESULT:    -8.025     14.393     16.039
REMARK INTER + INTRA:          -9.335
REMARK INTER:                  -8.538
REMARK INTRA:                  -0.797
REMARK UNBOUND:                -0.371
REMARK SMILES CN(C)c1ccc(/C=C2\C(=O)Nc3ccccc32)c2ccccc12
REMARK SMILES IDX 4 1 5 2 6 3 7 4 19 5 20 6 21 7 22 8 23 9 24 10 2 11 1 12
REMARK SMILES IDX 3 13 8 14 9 15 10 16 18 17 11 18 12 19 17 20 13 21 16 22
REMARK SMILES IDX 14 23 15 24
REMARK H PARENT 12 25
ROOT
ATOM      1  C   UNL     1     -35.144 147.809   0.833  1.00  0.00    +0.044 A 
ATOM      2  C   UNL     1     -36.419 148.356   1.037  1.00  0.00    +0.027 A 
ATOM      3  C   UNL     1     -37.426 148.197   0.088  1.00  0.00    +0.011 A 
ATOM      4  C   UNL     1     -37.188 147.473  -1.085  1.00  0.00    -0.017 A 
ATOM      5  C   UNL     1     -35.912 146.900  -1.327  1.00  0.00    -0.009 A 
ATOM      6  C   UNL     1     -35.617 146.155  -2.497  1.00  0.00    +0.009 A 
ATOM      7  C   UNL     1     -34.353 145.608  -2.724  1.00  0.00    +0.001 A 
ATOM      8  C   UNL     1     -33.349 145.790  -1.789  1.00  0.00    +0.001 A 
ATOM      9  C   UNL     1     -33.613 146.513  -0.626  1.00  0.00    +0.011 A 
ATOM     10  C   UNL     1     -34.884 147.074  -0.361  1.00  0.00    +0.006 A 
ENDROOT
BRANCH   1  11
ATOM     11  N   UNL     1     -34.125 147.938   1.819  1.00  0.00    -0.377 N 
ATOM     12  C   UNL     1     -34.461 147.141   3.005  1.00  0.00    +0.143 C 
ATOM     13  C   UNL     1     -33.729 149.315   2.112  1.00  0.00    +0.143 C 
ENDBRANCH   1  11
BRANCH   4  14
ATOM     14  C   UNL     1     -38.285 147.370  -2.061  1.00  0.00    +0.023 C 
ATOM     15  C   UNL     1     -39.218 146.407  -2.097  1.00  0.00    +0.050 C 
ATOM     16  C   UNL     1     -39.365 145.225  -1.168  1.00  0.00    +0.256 C 
ATOM     17  C   UNL     1     -40.295 146.307  -3.089  1.00  0.00    +0.011 A 
ATOM     18  O   UNL     1     -38.694 144.924  -0.202  1.00  0.00    -0.269 OA
ATOM     19  N   UNL     1     -40.466 144.530  -1.651  1.00  0.00    -0.321 N 
ATOM     20  C   UNL     1     -40.668 147.087  -4.170  1.00  0.00    +0.011 A 
ATOM     21  C   UNL     1     -41.014 145.152  -2.768  1.00  0.00    +0.049 A 
ATOM     22  C   UNL     1     -41.777 146.682  -4.921  1.00  0.00    +0.001 A 
ATOM     23  C   UNL     1     -42.110 144.734  -3.494  1.00  0.00    +0.027 A 
ATOM     24  C   UNL     1     -42.491 145.516  -4.587  1.00  0.00    +0.002 A 
ATOM     25  H   UNL     1     -40.800 143.683  -1.221  1.00  0.00    +0.170 HD
ENDBRANCH   4  14
TORSDOF 2
ENDMDL
MODEL 5
REMARK VINA RESULT:    -8.025      2.505      4.521
REMARK INTER + INTRA:          -9.334
REMARK INTER:                 -10.759
REMARK INTRA:                   1.425
REMARK UNBOUND:                -0.371
REMARK SMILES CN(C)c1ccc(/C=C2\C(=O)Nc3ccccc32)c2ccccc12
REMARK SMILES IDX 4 1 5 2 6 3 7 4 19 5 20 6 21 7 22 8 23 9 24 10 2 11 1 12
REMARK SMILES IDX 3 13 8 14 9 15 10 16 18 17 11 18 12 19 17 20 13 21 16 22
REMARK SMILES IDX 14 23 15 24
REMARK H PARENT 12 25
ROOT
ATOM      1  C   UNL     1     -37.669 164.784  -8.717  1.00  0.00    +0.044 A 
ATOM      2  C   UNL     1     -38.244 165.304  -7.548  1.00  0.00    +0.027 A 
ATOM      3  C   UNL     1     -38.537 164.479  -6.466  1.00  0.00    +0.011 A 
ATOM      4  C   UNL     1     -38.249 163.111  -6.518  1.00  0.00    -0.017 A 
ATOM      5  C   UNL     1     -37.665 162.545  -7.681  1.00  0.00    -0.009 A 
ATOM      6  C   UNL     1     -37.351 161.167  -7.788  1.00  0.00    +0.009 A 
ATOM      7  C   UNL     1     -36.785 160.625  -8.943  1.00  0.00    +0.001 A 
ATOM      8  C   UNL     1     -36.518 161.446 -10.025  1.00  0.00    +0.001 A 
ATOM      9  C   UNL     1     -36.811 162.808  -9.946  1.00  0.00    +0.011 A 
ATOM     10  C   UNL     1     -37.377 163.390  -8.788  1.00  0.00    +0.006 A 
ENDROOT
BRANCH   1  11
ATOM     11  N   UNL     1     -37.333 165.632  -9.809  1.00  0.00    -0.377 N 
ATOM     12  C   UNL     1     -37.089 166.999  -9.335  1.00  0.00    +0.143 C 
ATOM     13  C   UNL     1     -38.242 165.545 -10.952  1.00  0.00    +0.143 C 
ENDBRANCH   1  11
BRANCH   4  14
ATOM     14  C   UNL     1     -38.615 162.288  -5.353  1.00  0.00    +0.023 C 
ATOM     15  C   UNL     1     -38.682 162.712  -4.082  1.00  0.00    +0.050 C 
ATOM     16  C   UNL     1     -38.406 164.099  -3.552  1.00  0.00    +0.256 C 
ATOM     17  C   UNL     1     -39.030 161.875  -2.927  1.00  0.00    +0.011 A 
ATOM     18  O   UNL     1     -38.095 165.102  -4.162  1.00  0.00    -0.269 OA
ATOM     19  N   UNL     1     -38.594 163.998  -2.180  1.00  0.00    -0.321 N 
ATOM     20  C   UNL     1     -39.378 160.543  -2.788  1.00  0.00    +0.011 A 
ATOM     21  C   UNL     1     -38.957 162.708  -1.807  1.00  0.00    +0.049 A 
ATOM     22  C   UNL     1     -39.650 160.066  -1.501  1.00  0.00    +0.001 A 
ATOM     23  C   UNL     1     -39.222 162.260  -0.530  1.00  0.00    +0.027 A 
ATOM     24  C   UNL     1     -39.573 160.916  -0.383  1.00  0.00    +0.002 A 
ATOM     25  H   UNL     1     -38.474 164.783  -1.560  1.00  0.00    +0.170 HD
ENDBRANCH   4  14
TORSDOF 2
ENDMDL
MODEL 6
REMARK VINA RESULT:    -7.899     10.497     13.316
REMARK INTER + INTRA:          -9.194
REMARK INTER:                  -8.541
REMARK INTRA:                  -0.652
REMARK UNBOUND:                -0.371
REMARK SMILES CN(C)c1ccc(/C=C2\C(=O)Nc3ccccc32)c2ccccc12
REMARK SMILES IDX 4 1 5 2 6 3 7 4 19 5 20 6 21 7 22 8 23 9 24 10 2 11 1 12
REMARK SMILES IDX 3 13 8 14 9 15 10 16 18 17 11 18 12 19 17 20 13 21 16 22
REMARK SMILES IDX 14 23 15 24
REMARK H PARENT 12 25
ROOT
ATOM      1  C   UNL     1     -36.036 155.936   6.207  1.00  0.00    +0.044 A 
ATOM      2  C   UNL     1     -37.434 155.874   6.296  1.00  0.00    +0.027 A 
ATOM      3  C   UNL     1     -38.090 154.652   6.419  1.00  0.00    +0.011 A 
ATOM      4  C   UNL     1     -37.363 153.458   6.471  1.00  0.00    -0.017 A 
ATOM      5  C   UNL     1     -35.947 153.477   6.386  1.00  0.00    -0.009 A 
ATOM      6  C   UNL     1     -35.160 152.298   6.435  1.00  0.00    +0.009 A 
ATOM      7  C   UNL     1     -33.768 152.334   6.341  1.00  0.00    +0.001 A 
ATOM      8  C   UNL     1     -33.122 153.550   6.195  1.00  0.00    +0.001 A 
ATOM      9  C   UNL     1     -33.870 154.727   6.149  1.00  0.00    +0.011 A 
ATOM     10  C   UNL     1     -35.281 154.726   6.250  1.00  0.00    +0.006 A 
ENDROOT
BRANCH   1  11
ATOM     11  N   UNL     1     -35.361 157.186   6.120  1.00  0.00    -0.377 N 
ATOM     12  C   UNL     1     -35.946 158.146   7.063  1.00  0.00    +0.143 C 
ATOM     13  C   UNL     1     -35.201 157.700   4.760  1.00  0.00    +0.143 C 
ENDBRANCH   1  11
BRANCH   4  14
ATOM     14  C   UNL     1     -38.120 152.198   6.568  1.00  0.00    +0.023 C 
ATOM     15  C   UNL     1     -38.702 151.551   5.547  1.00  0.00    +0.050 C 
ATOM     16  C   UNL     1     -38.722 151.947   4.090  1.00  0.00    +0.256 C 
ATOM     17  C   UNL     1     -39.470 150.306   5.663  1.00  0.00    +0.011 A 
ATOM     18  O   UNL     1     -38.203 152.903   3.551  1.00  0.00    -0.269 OA
ATOM     19  N   UNL     1     -39.471 150.958   3.465  1.00  0.00    -0.321 N 
ATOM     20  C   UNL     1     -39.791 149.481   6.727  1.00  0.00    +0.011 A 
ATOM     21  C   UNL     1     -39.910 149.999   4.372  1.00  0.00    +0.049 A 
ATOM     22  C   UNL     1     -40.564 148.343   6.467  1.00  0.00    +0.001 A 
ATOM     23  C   UNL     1     -40.672 148.884   4.092  1.00  0.00    +0.027 A 
ATOM     24  C   UNL     1     -41.000 148.048   5.162  1.00  0.00    +0.002 A 
ATOM     25  H   UNL     1     -39.653 150.965   2.474  1.00  0.00    +0.170 HD
ENDBRANCH   4  14
TORSDOF 2
ENDMDL
MODEL 7
REMARK VINA RESULT:    -7.892     14.341     16.095
REMARK INTER + INTRA:          -9.186
REMARK INTER:                  -8.470
REMARK INTRA:                  -0.716
REMARK UNBOUND:                -0.371
REMARK SMILES CN(C)c1ccc(/C=C2\C(=O)Nc3ccccc32)c2ccccc12
REMARK SMILES IDX 4 1 5 2 6 3 7 4 19 5 20 6 21 7 22 8 23 9 24 10 2 11 1 12
REMARK SMILES IDX 3 13 8 14 9 15 10 16 18 17 11 18 12 19 17 20 13 21 16 22
REMARK SMILES IDX 14 23 15 24
REMARK H PARENT 12 25
ROOT
ATOM      1  C   UNL     1     -37.787 147.893   1.379  1.00  0.00    +0.044 A 
ATOM      2  C   UNL     1     -39.178 147.720   1.433  1.00  0.00    +0.027 A 
ATOM      3  C   UNL     1     -39.910 147.451   0.280  1.00  0.00    +0.011 A 
ATOM      4  C   UNL     1     -39.269 147.332  -0.957  1.00  0.00    -0.017 A 
ATOM      5  C   UNL     1     -37.862 147.497  -1.054  1.00  0.00    -0.009 A 
ATOM      6  C   UNL     1     -37.161 147.386  -2.281  1.00  0.00    +0.009 A 
ATOM      7  C   UNL     1     -35.778 147.561  -2.360  1.00  0.00    +0.001 A 
ATOM      8  C   UNL     1     -35.058 147.853  -1.214  1.00  0.00    +0.001 A 
ATOM      9  C   UNL     1     -35.721 147.962   0.008  1.00  0.00    +0.011 A 
ATOM     10  C   UNL     1     -37.119 147.783   0.124  1.00  0.00    +0.006 A 
ENDROOT
BRANCH   1  11
ATOM     11  N   UNL     1     -37.031 148.131   2.562  1.00  0.00    -0.377 N 
ATOM     12  C   UNL     1     -36.700 146.859   3.217  1.00  0.00    +0.143 C 
ATOM     13  C   UNL     1     -37.599 149.138   3.457  1.00  0.00    +0.143 C 
ENDBRANCH   1  11
BRANCH   4  14
ATOM     14  C   UNL     1     -40.106 147.080  -2.142  1.00  0.00    +0.023 C 
ATOM     15  C   UNL     1     -40.465 145.874  -2.608  1.00  0.00    +0.050 C 
ATOM     16  C   UNL     1     -40.108 144.520  -2.043  1.00  0.00    +0.256 C 
ATOM     17  C   UNL     1     -41.285 145.638  -3.802  1.00  0.00    +0.011 A 
ATOM     18  O   UNL     1     -39.453 144.251  -1.057  1.00  0.00    -0.269 OA
ATOM     19  N   UNL     1     -40.707 143.609  -2.904  1.00  0.00    -0.321 N 
ATOM     20  C   UNL     1     -41.896 146.476  -4.717  1.00  0.00    +0.011 A 
ATOM     21  C   UNL     1     -41.394 144.250  -3.929  1.00  0.00    +0.049 A 
ATOM     22  C   UNL     1     -42.618 145.891  -5.764  1.00  0.00    +0.001 A 
ATOM     23  C   UNL     1     -42.101 143.651  -4.952  1.00  0.00    +0.027 A 
ATOM     24  C   UNL     1     -42.719 144.492  -5.880  1.00  0.00    +0.002 A 
ATOM     25  H   UNL     1     -40.633 142.613  -2.771  1.00  0.00    +0.170 HD
ENDBRANCH   4  14
TORSDOF 2
ENDMDL
MODEL 8
REMARK VINA RESULT:    -7.891     10.429     14.733
REMARK INTER + INTRA:          -9.185
REMARK INTER:                  -8.474
REMARK INTRA:                  -0.711
REMARK UNBOUND:                -0.371
REMARK SMILES CN(C)c1ccc(/C=C2\C(=O)Nc3ccccc32)c2ccccc12
REMARK SMILES IDX 4 1 5 2 6 3 7 4 19 5 20 6 21 7 22 8 23 9 24 10 2 11 1 12
REMARK SMILES IDX 3 13 8 14 9 15 10 16 18 17 11 18 12 19 17 20 13 21 16 22
REMARK SMILES IDX 14 23 15 24
REMARK H PARENT 12 25
ROOT
ATOM      1  C   UNL     1     -35.948 149.413   7.353  1.00  0.00    +0.044 A 
ATOM      2  C   UNL     1     -35.234 150.372   8.087  1.00  0.00    +0.027 A 
ATOM      3  C   UNL     1     -35.433 151.732   7.873  1.00  0.00    +0.011 A 
ATOM      4  C   UNL     1     -36.365 152.173   6.927  1.00  0.00    -0.017 A 
ATOM      5  C   UNL     1     -37.111 151.236   6.165  1.00  0.00    -0.009 A 
ATOM      6  C   UNL     1     -38.069 151.626   5.195  1.00  0.00    +0.009 A 
ATOM      7  C   UNL     1     -38.787 150.691   4.448  1.00  0.00    +0.001 A 
ATOM      8  C   UNL     1     -38.566 149.338   4.649  1.00  0.00    +0.001 A 
ATOM      9  C   UNL     1     -37.634 148.925   5.600  1.00  0.00    +0.011 A 
ATOM     10  C   UNL     1     -36.896 149.846   6.380  1.00  0.00    +0.006 A 
ENDROOT
BRANCH   1  11
ATOM     11  N   UNL     1     -35.773 148.022   7.598  1.00  0.00    -0.377 N 
ATOM     12  C   UNL     1     -36.170 147.694   8.973  1.00  0.00    +0.143 C 
ATOM     13  C   UNL     1     -34.468 147.492   7.206  1.00  0.00    +0.143 C 
ENDBRANCH   1  11
BRANCH   4  14
ATOM     14  C   UNL     1     -36.504 153.625   6.725  1.00  0.00    +0.023 C 
ATOM     15  C   UNL     1     -35.691 154.397   5.989  1.00  0.00    +0.050 C 
ATOM     16  C   UNL     1     -34.470 153.975   5.207  1.00  0.00    +0.256 C 
ATOM     17  C   UNL     1     -35.831 155.847   5.813  1.00  0.00    +0.011 A 
ATOM     18  O   UNL     1     -33.996 152.865   5.070  1.00  0.00    -0.269 OA
ATOM     19  N   UNL     1     -33.984 155.150   4.649  1.00  0.00    -0.321 N 
ATOM     20  C   UNL     1     -36.744 156.778   6.276  1.00  0.00    +0.011 A 
ATOM     21  C   UNL     1     -34.769 156.244   4.995  1.00  0.00    +0.049 A 
ATOM     22  C   UNL     1     -36.568 158.115   5.902  1.00  0.00    +0.001 A 
ATOM     23  C   UNL     1     -34.575 157.556   4.613  1.00  0.00    +0.027 A 
ATOM     24  C   UNL     1     -35.493 158.500   5.079  1.00  0.00    +0.002 A 
ATOM     25  H   UNL     1     -33.160 155.170   4.068  1.00  0.00    +0.170 HD
ENDBRANCH   4  14
TORSDOF 2
ENDMDL
MODEL 9
REMARK VINA RESULT:    -7.823      1.953      7.531
REMARK INTER + INTRA:          -9.109
REMARK INTER:                  -9.422
REMARK INTRA:                   0.313
REMARK UNBOUND:                -0.371
REMARK SMILES CN(C)c1ccc(/C=C2\C(=O)Nc3ccccc32)c2ccccc12
REMARK SMILES IDX 4 1 5 2 6 3 7 4 19 5 20 6 21 7 22 8 23 9 24 10 2 11 1 12
REMARK SMILES IDX 3 13 8 14 9 15 10 16 18 17 11 18 12 19 17 20 13 21 16 22
REMARK SMILES IDX 14 23 15 24
REMARK H PARENT 12 25
ROOT
ATOM      1  C   UNL     1     -39.000 160.846  -2.983  1.00  0.00    +0.044 A 
ATOM      2  C   UNL     1     -39.013 160.218  -4.238  1.00  0.00    +0.027 A 
ATOM      3  C   UNL     1     -38.869 160.956  -5.409  1.00  0.00    +0.011 A 
ATOM      4  C   UNL     1     -38.691 162.343  -5.357  1.00  0.00    -0.017 A 
ATOM      5  C   UNL     1     -38.669 163.016  -4.108  1.00  0.00    -0.009 A 
ATOM      6  C   UNL     1     -38.491 164.418  -3.997  1.00  0.00    +0.009 A 
ATOM      7  C   UNL     1     -38.481 165.066  -2.760  1.00  0.00    +0.001 A 
ATOM      8  C   UNL     1     -38.650 164.330  -1.600  1.00  0.00    +0.001 A 
ATOM      9  C   UNL     1     -38.822 162.948  -1.679  1.00  0.00    +0.011 A 
ATOM     10  C   UNL     1     -38.828 162.260  -2.914  1.00  0.00    +0.006 A 
ENDROOT
BRANCH   1  11
ATOM     11  N   UNL     1     -39.110 160.089  -1.783  1.00  0.00    -0.377 N 
ATOM     12  C   UNL     1     -38.676 158.706  -2.013  1.00  0.00    +0.143 C 
ATOM     13  C   UNL     1     -40.398 160.210  -1.100  1.00  0.00    +0.143 C 
ENDBRANCH   1  11
BRANCH   4  14
ATOM     14  C   UNL     1     -38.577 163.068  -6.634  1.00  0.00    +0.023 C 
ATOM     15  C   UNL     1     -37.684 162.817  -7.602  1.00  0.00    +0.050 C 
ATOM     16  C   UNL     1     -36.608 161.758  -7.618  1.00  0.00    +0.256 C 
ATOM     17  C   UNL     1     -37.570 163.561  -8.862  1.00  0.00    +0.011 A 
ATOM     18  O   UNL     1     -36.351 160.917  -6.781  1.00  0.00    -0.269 OA
ATOM     19  N   UNL     1     -35.952 161.938  -8.829  1.00  0.00    -0.321 N 
ATOM     20  C   UNL     1     -38.271 164.623  -9.407  1.00  0.00    +0.011 A 
ATOM     21  C   UNL     1     -36.505 162.985  -9.560  1.00  0.00    +0.049 A 
ATOM     22  C   UNL     1     -37.879 165.094 -10.665  1.00  0.00    +0.001 A 
ATOM     23  C   UNL     1     -36.100 163.432 -10.801  1.00  0.00    +0.027 A 
ATOM     24  C   UNL     1     -36.803 164.504 -11.355  1.00  0.00    +0.002 A 
ATOM     25  H   UNL     1     -35.174 161.363  -9.112  1.00  0.00    +0.170 HD
ENDBRANCH   4  14
TORSDOF 2
ENDMDL
MODEL 10
REMARK VINA RESULT:    -7.290     12.141     14.582
REMARK INTER + INTRA:          -8.514
REMARK INTER:                  -7.835
REMARK INTRA:                  -0.678
REMARK UNBOUND:                -0.371
REMARK SMILES CN(C)c1ccc(/C=C2\C(=O)Nc3ccccc32)c2ccccc12
REMARK SMILES IDX 4 1 5 2 6 3 7 4 19 5 20 6 21 7 22 8 23 9 24 10 2 11 1 12
REMARK SMILES IDX 3 13 8 14 9 15 10 16 18 17 11 18 12 19 17 20 13 21 16 22
REMARK SMILES IDX 14 23 15 24
REMARK H PARENT 12 25
ROOT
ATOM      1  C   UNL     1     -37.649 148.411   5.673  1.00  0.00    +0.044 A 
ATOM      2  C   UNL     1     -36.915 148.885   6.771  1.00  0.00    +0.027 A 
ATOM      3  C   UNL     1     -36.742 150.250   6.981  1.00  0.00    +0.011 A 
ATOM      4  C   UNL     1     -37.312 151.180   6.106  1.00  0.00    -0.017 A 
ATOM      5  C   UNL     1     -38.065 150.743   4.985  1.00  0.00    -0.009 A 
ATOM      6  C   UNL     1     -38.666 151.642   4.068  1.00  0.00    +0.009 A 
ATOM      7  C   UNL     1     -39.395 151.194   2.965  1.00  0.00    +0.001 A 
ATOM      8  C   UNL     1     -39.543 149.835   2.747  1.00  0.00    +0.001 A 
ATOM      9  C   UNL     1     -38.968 148.927   3.637  1.00  0.00    +0.011 A 
ATOM     10  C   UNL     1     -38.230 149.347   4.768  1.00  0.00    +0.006 A 
ENDROOT
BRANCH   1  11
ATOM     11  N   UNL     1     -37.859 147.017   5.478  1.00  0.00    -0.377 N 
ATOM     12  C   UNL     1     -38.699 146.474   6.552  1.00  0.00    +0.143 C 
ATOM     13  C   UNL     1     -36.643 146.247   5.217  1.00  0.00    +0.143 C 
ENDBRANCH   1  11
BRANCH   4  14
ATOM     14  C   UNL     1     -37.063 152.608   6.366  1.00  0.00    +0.023 C 
ATOM     15  C   UNL     1     -35.935 153.275   6.078  1.00  0.00    +0.050 C 
ATOM     16  C   UNL     1     -34.681 152.736   5.433  1.00  0.00    +0.256 C 
ATOM     17  C   UNL     1     -35.695 154.694   6.361  1.00  0.00    +0.011 A 
ATOM     18  O   UNL     1     -34.450 151.614   5.029  1.00  0.00    -0.269 OA
ATOM     19  N   UNL     1     -33.815 153.821   5.383  1.00  0.00    -0.321 N 
ATOM     20  C   UNL     1     -36.463 155.694   6.932  1.00  0.00    +0.011 A 
ATOM     21  C   UNL     1     -34.397 154.964   5.920  1.00  0.00    +0.049 A 
ATOM     22  C   UNL     1     -35.900 156.970   7.051  1.00  0.00    +0.001 A 
ATOM     23  C   UNL     1     -33.820 156.213   6.027  1.00  0.00    +0.027 A 
ATOM     24  C   UNL     1     -34.590 157.227   6.603  1.00  0.00    +0.002 A 
ATOM     25  H   UNL     1     -32.887 153.752   4.997  1.00  0.00    +0.170 HD
ENDBRANCH   4  14
TORSDOF 2
ENDMDL
