MODEL 1
REMARK VINA RESULT:    -8.520      0.000      0.000
REMARK INTER + INTRA:         -15.139
REMARK INTER:                 -13.003
REMARK INTRA:                  -2.136
REMARK UNBOUND:                -2.136
REMARK SMILES COC(=O)c1ccc2c(c1)NC(=O)/C2=C(\Nc1ccc(N(C)C(=O)CN2CCN(C)CC2)cc1)c1ccccc1
REMARK SMILES IDX 17 1 18 2 19 3 20 4 33 5 34 6 16 7 15 9 5 10 6 11 10 12 7 13
REMARK SMILES IDX 9 14 8 15 11 16 14 17 12 18 13 19 3 21 4 22 2 23 1 24 35 25
REMARK SMILES IDX 36 26 40 27 37 28 39 29 38 30 21 31 22 32 23 33 24 34 25 35
REMARK SMILES IDX 26 36 27 37 32 38 28 39 31 40 29 41 30 42
REMARK H PARENT 16 8 11 20
ROOT
ATOM      1  C   UNL     1     -35.623 147.064   3.880  1.00  0.00    +0.039 A 
ATOM      2  C   UNL     1     -35.062 147.853   2.868  1.00  0.00    +0.028 A 
ATOM      3  C   UNL     1     -34.232 147.311   1.873  1.00  0.00    +0.028 A 
ATOM      4  C   UNL     1     -33.917 145.950   1.843  1.00  0.00    +0.043 A 
ATOM      5  C   UNL     1     -34.501 145.158   2.844  1.00  0.00    +0.028 A 
ATOM      6  C   UNL     1     -35.334 145.705   3.839  1.00  0.00    +0.028 A 
ENDROOT
BRANCH   1   7
ATOM      7  N   UNL     1     -36.476 147.696   4.801  1.00  0.00    -0.354 N 
ATOM      8  H   UNL     1     -36.911 147.025   5.443  1.00  0.00    +0.167 HD
BRANCH   7   9
ATOM      9  C   UNL     1     -36.940 148.996   4.994  1.00  0.00    +0.059 C 
ATOM     10  C   UNL     1     -36.141 154.040   6.750  1.00  0.00    +0.062 A 
ATOM     11  C   UNL     1     -37.263 153.634   5.995  1.00  0.00    +0.016 A 
ATOM     12  C   UNL     1     -35.140 153.113   7.067  1.00  0.00    +0.042 A 
ATOM     13  C   UNL     1     -37.401 152.307   5.558  1.00  0.00    +0.012 A 
ATOM     14  C   UNL     1     -35.306 151.814   6.623  1.00  0.00    +0.050 A 
ATOM     15  C   UNL     1     -36.420 151.388   5.889  1.00  0.00    +0.013 A 
ATOM     16  N   UNL     1     -34.410 150.770   6.815  1.00  0.00    -0.321 N 
ATOM     17  C   UNL     1     -36.205 149.952   5.617  1.00  0.00    +0.073 C 
ATOM     18  C   UNL     1     -34.859 149.608   6.219  1.00  0.00    +0.258 C 
ATOM     19  O   UNL     1     -34.285 148.534   6.183  1.00  0.00    -0.269 OA
ATOM     20  H   UNL     1     -33.523 150.829   7.293  1.00  0.00    +0.170 HD
BRANCH  10  21
ATOM     21  C   UNL     1     -35.966 155.439   7.225  1.00  0.00    +0.337 C 
ATOM     22  O   UNL     1     -36.898 156.207   7.405  1.00  0.00    -0.246 OA
BRANCH  21  23
ATOM     23  O   UNL     1     -34.655 155.721   7.422  1.00  0.00    -0.465 OA
ATOM     24  C   UNL     1     -34.180 156.835   6.663  1.00  0.00    +0.282 C 
ENDBRANCH  21  23
ENDBRANCH  10  21
BRANCH   9  25
ATOM     25  C   UNL     1     -38.249 149.377   4.430  1.00  0.00    -0.001 A 
ATOM     26  C   UNL     1     -39.399 149.376   5.236  1.00  0.00    +0.010 A 
ATOM     27  C   UNL     1     -38.355 149.754   3.084  1.00  0.00    +0.010 A 
ATOM     28  C   UNL     1     -40.634 149.751   4.703  1.00  0.00    +0.001 A 
ATOM     29  C   UNL     1     -39.592 150.127   2.554  1.00  0.00    +0.001 A 
ATOM     30  C   UNL     1     -40.729 150.126   3.363  1.00  0.00    +0.000 A 
ENDBRANCH   9  25
ENDBRANCH   7   9
ENDBRANCH   1   7
BRANCH   4  31
ATOM     31  N   UNL     1     -33.088 145.370   0.808  1.00  0.00    -0.314 N 
ATOM     32  C   UNL     1     -32.207 144.264   1.189  1.00  0.00    +0.153 C 
BRANCH  31  33
ATOM     33  C   UNL     1     -33.035 145.906  -0.498  1.00  0.00    +0.240 C 
ATOM     34  O   UNL     1     -32.202 146.739  -0.863  1.00  0.00    -0.273 OA
BRANCH  33  35
ATOM     35  C   UNL     1     -34.110 145.377  -1.479  1.00  0.00    +0.185 C 
BRANCH  35  36
ATOM     36  N   UNL     1     -35.421 146.026  -1.286  1.00  0.00    -0.292 NA
ATOM     37  C   UNL     1     -35.495 147.312  -2.006  1.00  0.00    +0.100 C 
ATOM     38  C   UNL     1     -36.552 145.166  -1.659  1.00  0.00    +0.100 C 
ATOM     39  C   UNL     1     -36.937 147.798  -2.313  1.00  0.00    +0.099 C 
ATOM     40  C   UNL     1     -37.925 145.821  -1.341  1.00  0.00    +0.099 C 
ATOM     41  N   UNL     1     -37.987 147.299  -1.408  1.00  0.00    -0.304 NA
ATOM     42  C   UNL     1     -37.839 147.883  -0.072  1.00  0.00    +0.105 C 
ENDBRANCH  35  36
ENDBRANCH  33  35
ENDBRANCH  31  33
ENDBRANCH   4  31
TORSDOF 9
ENDMDL
MODEL 2
REMARK VINA RESULT:    -8.367      1.068      1.094
REMARK INTER + INTRA:         -14.904
REMARK INTER:                 -12.499
REMARK INTRA:                  -2.405
REMARK UNBOUND:                -2.136
REMARK SMILES COC(=O)c1ccc2c(c1)NC(=O)/C2=C(\Nc1ccc(N(C)C(=O)CN2CCN(C)CC2)cc1)c1ccccc1
REMARK SMILES IDX 17 1 18 2 19 3 20 4 33 5 34 6 16 7 15 9 5 10 6 11 10 12 7 13
REMARK SMILES IDX 9 14 8 15 11 16 14 17 12 18 13 19 3 21 4 22 2 23 1 24 35 25
REMARK SMILES IDX 36 26 40 27 37 28 39 29 38 30 21 31 22 32 23 33 24 34 25 35
REMARK SMILES IDX 26 36 27 37 32 38 28 39 31 40 29 41 30 42
REMARK H PARENT 16 8 11 20
ROOT
ATOM      1  C   UNL     1     -35.724 146.886   4.296  1.00  0.00    +0.039 A 
ATOM      2  C   UNL     1     -35.122 147.561   3.226  1.00  0.00    +0.028 A 
ATOM      3  C   UNL     1     -34.443 146.880   2.202  1.00  0.00    +0.028 A 
ATOM      4  C   UNL     1     -34.327 145.488   2.199  1.00  0.00    +0.043 A 
ATOM      5  C   UNL     1     -34.952 144.813   3.259  1.00  0.00    +0.028 A 
ATOM      6  C   UNL     1     -35.633 145.499   4.283  1.00  0.00    +0.028 A 
ENDROOT
BRANCH   1   7
ATOM      7  N   UNL     1     -36.418 147.657   5.243  1.00  0.00    -0.354 N 
ATOM      8  H   UNL     1     -36.675 147.107   6.070  1.00  0.00    +0.167 HD
BRANCH   7   9
ATOM      9  C   UNL     1     -36.915 148.958   5.292  1.00  0.00    +0.059 C 
ATOM     10  C   UNL     1     -36.268 154.176   6.528  1.00  0.00    +0.062 A 
ATOM     11  C   UNL     1     -37.365 153.665   5.801  1.00  0.00    +0.016 A 
ATOM     12  C   UNL     1     -35.252 153.312   6.956  1.00  0.00    +0.042 A 
ATOM     13  C   UNL     1     -37.465 152.297   5.502  1.00  0.00    +0.012 A 
ATOM     14  C   UNL     1     -35.379 151.970   6.647  1.00  0.00    +0.050 A 
ATOM     15  C   UNL     1     -36.469 151.442   5.942  1.00  0.00    +0.013 A 
ATOM     16  N   UNL     1     -34.462 150.974   6.960  1.00  0.00    -0.321 N 
ATOM     17  C   UNL     1     -36.215 149.991   5.825  1.00  0.00    +0.073 C 
ATOM     18  C   UNL     1     -34.873 149.746   6.481  1.00  0.00    +0.258 C 
ATOM     19  O   UNL     1     -34.274 148.689   6.567  1.00  0.00    -0.269 OA
ATOM     20  H   UNL     1     -33.586 151.105   7.445  1.00  0.00    +0.170 HD
BRANCH  10  21
ATOM     21  C   UNL     1     -36.135 155.620   6.858  1.00  0.00    +0.337 C 
ATOM     22  O   UNL     1     -36.754 156.161   7.761  1.00  0.00    -0.246 OA
BRANCH  21  23
ATOM     23  O   UNL     1     -35.250 156.224   6.028  1.00  0.00    -0.465 OA
ATOM     24  C   UNL     1     -34.265 157.010   6.702  1.00  0.00    +0.282 C 
ENDBRANCH  21  23
ENDBRANCH  10  21
BRANCH   9  25
ATOM     25  C   UNL     1     -38.222 149.245   4.671  1.00  0.00    -0.001 A 
ATOM     26  C   UNL     1     -39.391 149.275   5.450  1.00  0.00    +0.010 A 
ATOM     27  C   UNL     1     -38.309 149.502   3.295  1.00  0.00    +0.010 A 
ATOM     28  C   UNL     1     -40.624 149.561   4.861  1.00  0.00    +0.001 A 
ATOM     29  C   UNL     1     -39.544 149.788   2.710  1.00  0.00    +0.001 A 
ATOM     30  C   UNL     1     -40.699 149.818   3.493  1.00  0.00    +0.000 A 
ENDBRANCH   9  25
ENDBRANCH   7   9
ENDBRANCH   1   7
BRANCH   4  31
ATOM     31  N   UNL     1     -33.657 144.769   1.137  1.00  0.00    -0.314 N 
ATOM     32  C   UNL     1     -32.201 144.893   1.051  1.00  0.00    +0.153 C 
BRANCH  31  33
ATOM     33  C   UNL     1     -34.370 144.058   0.146  1.00  0.00    +0.240 C 
ATOM     34  O   UNL     1     -34.886 142.954   0.332  1.00  0.00    -0.273 OA
BRANCH  33  35
ATOM     35  C   UNL     1     -34.474 144.760  -1.231  1.00  0.00    +0.185 C 
BRANCH  35  36
ATOM     36  N   UNL     1     -35.258 146.009  -1.172  1.00  0.00    -0.292 NA
ATOM     37  C   UNL     1     -34.655 147.063  -2.009  1.00  0.00    +0.100 C 
ATOM     38  C   UNL     1     -36.671 145.819  -1.529  1.00  0.00    +0.100 C 
ATOM     39  C   UNL     1     -35.636 148.186  -2.440  1.00  0.00    +0.099 C 
ATOM     40  C   UNL     1     -37.507 147.117  -1.350  1.00  0.00    +0.099 C 
ATOM     41  N   UNL     1     -36.794 148.400  -1.555  1.00  0.00    -0.304 NA
ATOM     42  C   UNL     1     -36.368 148.962  -0.271  1.00  0.00    +0.105 C 
ENDBRANCH  35  36
ENDBRANCH  33  35
ENDBRANCH  31  33
ENDBRANCH   4  31
TORSDOF 9
ENDMDL
MODEL 3
REMARK VINA RESULT:    -8.267      4.574      9.479
REMARK INTER + INTRA:         -14.752
REMARK INTER:                 -13.299
REMARK INTRA:                  -1.454
REMARK UNBOUND:                -2.136
REMARK SMILES COC(=O)c1ccc2c(c1)NC(=O)/C2=C(\Nc1ccc(N(C)C(=O)CN2CCN(C)CC2)cc1)c1ccccc1
REMARK SMILES IDX 17 1 18 2 19 3 20 4 33 5 34 6 16 7 15 9 5 10 6 11 10 12 7 13
REMARK SMILES IDX 9 14 8 15 11 16 14 17 12 18 13 19 3 21 4 22 2 23 1 24 35 25
REMARK SMILES IDX 36 26 40 27 37 28 39 29 38 30 21 31 22 32 23 33 24 34 25 35
REMARK SMILES IDX 26 36 27 37 32 38 28 39 31 40 29 41 30 42
REMARK H PARENT 16 8 11 20
ROOT
ATOM      1  C   UNL     1     -37.427 153.183   6.055  1.00  0.00    +0.039 A 
ATOM      2  C   UNL     1     -37.474 153.640   4.732  1.00  0.00    +0.028 A 
ATOM      3  C   UNL     1     -37.358 155.003   4.409  1.00  0.00    +0.028 A 
ATOM      4  C   UNL     1     -37.191 155.978   5.395  1.00  0.00    +0.043 A 
ATOM      5  C   UNL     1     -37.119 155.514   6.718  1.00  0.00    +0.028 A 
ATOM      6  C   UNL     1     -37.235 154.147   7.037  1.00  0.00    +0.028 A 
ENDROOT
BRANCH   1   7
ATOM      7  N   UNL     1     -37.507 151.796   6.267  1.00  0.00    -0.354 N 
ATOM      8  H   UNL     1     -37.415 151.555   7.260  1.00  0.00    +0.167 HD
BRANCH   7   9
ATOM      9  C   UNL     1     -37.593 150.670   5.450  1.00  0.00    +0.059 C 
ATOM     10  C   UNL     1     -35.372 146.196   3.397  1.00  0.00    +0.062 A 
ATOM     11  C   UNL     1     -36.731 146.547   3.244  1.00  0.00    +0.016 A 
ATOM     12  C   UNL     1     -34.518 147.022   4.138  1.00  0.00    +0.042 A 
ATOM     13  C   UNL     1     -37.247 147.720   3.816  1.00  0.00    +0.012 A 
ATOM     14  C   UNL     1     -35.055 148.171   4.688  1.00  0.00    +0.050 A 
ATOM     15  C   UNL     1     -36.396 148.545   4.532  1.00  0.00    +0.013 A 
ATOM     16  N   UNL     1     -34.373 149.091   5.474  1.00  0.00    -0.321 N 
ATOM     17  C   UNL     1     -36.554 149.816   5.269  1.00  0.00    +0.073 C 
ATOM     18  C   UNL     1     -35.206 150.109   5.892  1.00  0.00    +0.258 C 
ATOM     19  O   UNL     1     -34.914 151.045   6.616  1.00  0.00    -0.269 OA
ATOM     20  H   UNL     1     -33.403 149.033   5.749  1.00  0.00    +0.170 HD
BRANCH  10  21
ATOM     21  C   UNL     1     -34.798 144.959   2.803  1.00  0.00    +0.337 C 
ATOM     22  O   UNL     1     -34.401 144.017   3.472  1.00  0.00    -0.246 OA
BRANCH  21  23
ATOM     23  O   UNL     1     -34.784 145.035   1.450  1.00  0.00    -0.465 OA
ATOM     24  C   UNL     1     -33.542 145.485   0.907  1.00  0.00    +0.282 C 
ENDBRANCH  21  23
ENDBRANCH  10  21
BRANCH   9  25
ATOM     25  C   UNL     1     -38.885 150.346   4.816  1.00  0.00    -0.001 A 
ATOM     26  C   UNL     1     -39.167 150.780   3.511  1.00  0.00    +0.010 A 
ATOM     27  C   UNL     1     -39.841 149.590   5.509  1.00  0.00    +0.010 A 
ATOM     28  C   UNL     1     -40.386 150.459   2.909  1.00  0.00    +0.001 A 
ATOM     29  C   UNL     1     -41.059 149.271   4.904  1.00  0.00    +0.001 A 
ATOM     30  C   UNL     1     -41.329 149.705   3.606  1.00  0.00    +0.000 A 
ENDBRANCH   9  25
ENDBRANCH   7   9
ENDBRANCH   1   7
BRANCH   4  31
ATOM     31  N   UNL     1     -37.040 157.382   5.078  1.00  0.00    -0.314 N 
ATOM     32  C   UNL     1     -36.784 158.302   6.188  1.00  0.00    +0.153 C 
BRANCH  31  33
ATOM     33  C   UNL     1     -37.236 157.881   3.771  1.00  0.00    +0.240 C 
ATOM     34  O   UNL     1     -36.341 158.379   3.086  1.00  0.00    -0.273 OA
BRANCH  33  35
ATOM     35  C   UNL     1     -38.681 157.766   3.226  1.00  0.00    +0.185 C 
BRANCH  35  36
ATOM     36  N   UNL     1     -38.935 158.681   2.096  1.00  0.00    -0.292 NA
ATOM     37  C   UNL     1     -38.425 158.125   0.829  1.00  0.00    +0.100 C 
ATOM     38  C   UNL     1     -40.350 159.050   1.959  1.00  0.00    +0.100 C 
ATOM     39  C   UNL     1     -39.085 158.714  -0.447  1.00  0.00    +0.099 C 
ATOM     40  C   UNL     1     -40.582 160.103   0.840  1.00  0.00    +0.099 C 
ATOM     41  N   UNL     1     -39.649 160.068  -0.310  1.00  0.00    -0.304 NA
ATOM     42  C   UNL     1     -38.583 161.057  -0.139  1.00  0.00    +0.105 C 
ENDBRANCH  35  36
ENDBRANCH  33  35
ENDBRANCH  31  33
ENDBRANCH   4  31
TORSDOF 9
ENDMDL
MODEL 4
REMARK VINA RESULT:    -8.137      2.098      4.216
REMARK INTER + INTRA:         -14.554
REMARK INTER:                 -12.671
REMARK INTRA:                  -1.883
REMARK UNBOUND:                -2.136
REMARK SMILES COC(=O)c1ccc2c(c1)NC(=O)/C2=C(\Nc1ccc(N(C)C(=O)CN2CCN(C)CC2)cc1)c1ccccc1
REMARK SMILES IDX 17 1 18 2 19 3 20 4 33 5 34 6 16 7 15 9 5 10 6 11 10 12 7 13
REMARK SMILES IDX 9 14 8 15 11 16 14 17 12 18 13 19 3 21 4 22 2 23 1 24 35 25
REMARK SMILES IDX 36 26 40 27 37 28 39 29 38 30 21 31 22 32 23 33 24 34 25 35
REMARK SMILES IDX 26 36 27 37 32 38 28 39 31 40 29 41 30 42
REMARK H PARENT 16 8 11 20
ROOT
ATOM      1  C   UNL     1     -38.324 148.597   2.802  1.00  0.00    +0.039 A 
ATOM      2  C   UNL     1     -37.098 148.618   2.125  1.00  0.00    +0.028 A 
ATOM      3  C   UNL     1     -36.985 148.253   0.773  1.00  0.00    +0.028 A 
ATOM      4  C   UNL     1     -38.095 147.845   0.029  1.00  0.00    +0.043 A 
ATOM      5  C   UNL     1     -39.326 147.849   0.703  1.00  0.00    +0.028 A 
ATOM      6  C   UNL     1     -39.435 148.216   2.058  1.00  0.00    +0.028 A 
ENDROOT
BRANCH   1   7
ATOM      7  N   UNL     1     -38.336 149.023   4.140  1.00  0.00    -0.354 N 
ATOM      8  H   UNL     1     -39.184 148.719   4.631  1.00  0.00    +0.167 HD
BRANCH   7   9
ATOM      9  C   UNL     1     -37.521 149.830   4.932  1.00  0.00    +0.059 C 
ATOM     10  C   UNL     1     -36.005 154.731   6.619  1.00  0.00    +0.062 A 
ATOM     11  C   UNL     1     -35.559 153.523   7.197  1.00  0.00    +0.016 A 
ATOM     12  C   UNL     1     -36.914 154.702   5.554  1.00  0.00    +0.042 A 
ATOM     13  C   UNL     1     -36.004 152.281   6.717  1.00  0.00    +0.012 A 
ATOM     14  C   UNL     1     -37.333 153.463   5.103  1.00  0.00    +0.050 A 
ATOM     15  C   UNL     1     -36.888 152.253   5.651  1.00  0.00    +0.013 A 
ATOM     16  N   UNL     1     -38.248 153.238   4.083  1.00  0.00    -0.321 N 
ATOM     17  C   UNL     1     -37.571 151.185   4.894  1.00  0.00    +0.073 C 
ATOM     18  C   UNL     1     -38.473 151.888   3.901  1.00  0.00    +0.258 C 
ATOM     19  O   UNL     1     -39.242 151.374   3.108  1.00  0.00    -0.269 OA
ATOM     20  H   UNL     1     -38.727 153.947   3.548  1.00  0.00    +0.170 HD
BRANCH  10  21
ATOM     21  C   UNL     1     -35.552 156.061   7.108  1.00  0.00    +0.337 C 
ATOM     22  O   UNL     1     -36.320 156.949   7.443  1.00  0.00    -0.246 OA
BRANCH  21  23
ATOM     23  O   UNL     1     -34.199 156.134   7.122  1.00  0.00    -0.465 OA
ATOM     24  C   UNL     1     -33.643 156.849   6.017  1.00  0.00    +0.282 C 
ENDBRANCH  21  23
ENDBRANCH  10  21
BRANCH   9  25
ATOM     25  C   UNL     1     -36.621 149.191   5.912  1.00  0.00    -0.001 A 
ATOM     26  C   UNL     1     -35.298 148.875   5.563  1.00  0.00    +0.010 A 
ATOM     27  C   UNL     1     -37.077 148.902   7.206  1.00  0.00    +0.010 A 
ATOM     28  C   UNL     1     -34.444 148.284   6.496  1.00  0.00    +0.001 A 
ATOM     29  C   UNL     1     -36.220 148.310   8.137  1.00  0.00    +0.001 A 
ATOM     30  C   UNL     1     -34.907 148.003   7.782  1.00  0.00    +0.000 A 
ENDBRANCH   9  25
ENDBRANCH   7   9
ENDBRANCH   1   7
BRANCH   4  31
ATOM     31  N   UNL     1     -38.002 147.495  -1.371  1.00  0.00    -0.314 N 
ATOM     32  C   UNL     1     -39.038 146.618  -1.919  1.00  0.00    +0.153 C 
BRANCH  31  33
ATOM     33  C   UNL     1     -36.903 147.884  -2.170  1.00  0.00    +0.240 C 
ATOM     34  O   UNL     1     -36.734 149.029  -2.592  1.00  0.00    -0.273 OA
BRANCH  33  35
ATOM     35  C   UNL     1     -35.890 146.759  -2.499  1.00  0.00    +0.185 C 
BRANCH  35  36
ATOM     36  N   UNL     1     -34.971 146.480  -1.379  1.00  0.00    -0.292 NA
ATOM     37  C   UNL     1     -35.229 145.153  -0.790  1.00  0.00    +0.100 C 
ATOM     38  C   UNL     1     -33.555 146.607  -1.750  1.00  0.00    +0.100 C 
ATOM     39  C   UNL     1     -34.033 144.550  -0.005  1.00  0.00    +0.099 C 
ATOM     40  C   UNL     1     -32.605 146.424  -0.533  1.00  0.00    +0.099 C 
ATOM     41  N   UNL     1     -33.072 145.523   0.545  1.00  0.00    -0.304 NA
ATOM     42  C   UNL     1     -33.681 146.293   1.632  1.00  0.00    +0.105 C 
ENDBRANCH  35  36
ENDBRANCH  33  35
ENDBRANCH  31  33
ENDBRANCH   4  31
TORSDOF 9
ENDMDL
MODEL 5
REMARK VINA RESULT:    -7.913      4.034      9.731
REMARK INTER + INTRA:         -14.211
REMARK INTER:                 -11.772
REMARK INTRA:                  -2.440
REMARK UNBOUND:                -2.136
REMARK SMILES COC(=O)c1ccc2c(c1)NC(=O)/C2=C(\Nc1ccc(N(C)C(=O)CN2CCN(C)CC2)cc1)c1ccccc1
REMARK SMILES IDX 17 1 18 2 19 3 20 4 33 5 34 6 16 7 15 9 5 10 6 11 10 12 7 13
REMARK SMILES IDX 9 14 8 15 11 16 14 17 12 18 13 19 3 21 4 22 2 23 1 24 35 25
REMARK SMILES IDX 36 26 40 27 37 28 39 29 38 30 21 31 22 32 23 33 24 34 25 35
REMARK SMILES IDX 26 36 27 37 32 38 28 39 31 40 29 41 30 42
REMARK H PARENT 16 8 11 20
ROOT
ATOM      1  C   UNL     1     -37.086 145.648   2.079  1.00  0.00    +0.039 A 
ATOM      2  C   UNL     1     -37.922 145.749   3.198  1.00  0.00    +0.028 A 
ATOM      3  C   UNL     1     -37.471 146.270   4.422  1.00  0.00    +0.028 A 
ATOM      4  C   UNL     1     -36.157 146.714   4.589  1.00  0.00    +0.043 A 
ATOM      5  C   UNL     1     -35.329 146.635   3.459  1.00  0.00    +0.028 A 
ATOM      6  C   UNL     1     -35.785 146.112   2.234  1.00  0.00    +0.028 A 
ENDROOT
BRANCH   1   7
ATOM      7  N   UNL     1     -37.648 145.154   0.890  1.00  0.00    -0.354 N 
ATOM      8  H   UNL     1     -37.749 144.133   0.909  1.00  0.00    +0.167 HD
BRANCH   7   9
ATOM      9  C   UNL     1     -38.017 145.703  -0.337  1.00  0.00    +0.059 C 
ATOM     10  C   UNL     1     -41.655 146.343  -4.277  1.00  0.00    +0.062 A 
ATOM     11  C   UNL     1     -40.449 147.072  -4.188  1.00  0.00    +0.016 A 
ATOM     12  C   UNL     1     -41.975 145.401  -3.291  1.00  0.00    +0.042 A 
ATOM     13  C   UNL     1     -39.552 146.864  -3.128  1.00  0.00    +0.012 A 
ATOM     14  C   UNL     1     -41.072 145.219  -2.260  1.00  0.00    +0.050 A 
ATOM     15  C   UNL     1     -39.862 145.919  -2.164  1.00  0.00    +0.013 A 
ATOM     16  N   UNL     1     -41.231 144.356  -1.184  1.00  0.00    -0.321 N 
ATOM     17  C   UNL     1     -39.206 145.435  -0.933  1.00  0.00    +0.073 C 
ATOM     18  C   UNL     1     -40.162 144.436  -0.314  1.00  0.00    +0.258 C 
ATOM     19  O   UNL     1     -40.022 143.830   0.733  1.00  0.00    -0.269 OA
ATOM     20  H   UNL     1     -42.028 143.760  -1.014  1.00  0.00    +0.170 HD
BRANCH  10  21
ATOM     21  C   UNL     1     -42.624 146.543  -5.387  1.00  0.00    +0.337 C 
ATOM     22  O   UNL     1     -43.435 147.456  -5.413  1.00  0.00    -0.246 OA
BRANCH  21  23
ATOM     23  O   UNL     1     -42.475 145.585  -6.335  1.00  0.00    -0.465 OA
ATOM     24  C   UNL     1     -41.611 145.961  -7.409  1.00  0.00    +0.282 C 
ENDBRANCH  21  23
ENDBRANCH  10  21
BRANCH   9  25
ATOM     25  C   UNL     1     -37.116 146.677  -0.981  1.00  0.00    -0.001 A 
ATOM     26  C   UNL     1     -36.200 146.262  -1.962  1.00  0.00    +0.010 A 
ATOM     27  C   UNL     1     -37.173 148.033  -0.627  1.00  0.00    +0.010 A 
ATOM     28  C   UNL     1     -35.358 147.189  -2.579  1.00  0.00    +0.001 A 
ATOM     29  C   UNL     1     -36.330 148.958  -1.247  1.00  0.00    +0.001 A 
ATOM     30  C   UNL     1     -35.425 148.535  -2.222  1.00  0.00    +0.000 A 
ENDBRANCH   9  25
ENDBRANCH   7   9
ENDBRANCH   1   7
BRANCH   4  31
ATOM     31  N   UNL     1     -35.684 147.282   5.833  1.00  0.00    -0.314 N 
ATOM     32  C   UNL     1     -35.250 146.353   6.878  1.00  0.00    +0.153 C 
BRANCH  31  33
ATOM     33  C   UNL     1     -35.735 148.670   6.092  1.00  0.00    +0.240 C 
ATOM     34  O   UNL     1     -34.793 149.439   5.891  1.00  0.00    -0.273 OA
BRANCH  33  35
ATOM     35  C   UNL     1     -37.078 149.192   6.660  1.00  0.00    +0.185 C 
BRANCH  35  36
ATOM     36  N   UNL     1     -38.052 149.520   5.600  1.00  0.00    -0.292 NA
ATOM     37  C   UNL     1     -39.413 149.087   5.968  1.00  0.00    +0.100 C 
ATOM     38  C   UNL     1     -38.049 150.942   5.234  1.00  0.00    +0.100 C 
ATOM     39  C   UNL     1     -40.552 149.828   5.217  1.00  0.00    +0.099 C 
ATOM     40  C   UNL     1     -38.995 151.249   4.039  1.00  0.00    +0.099 C 
ATOM     41  N   UNL     1     -40.193 150.389   3.903  1.00  0.00    -0.304 NA
ATOM     42  C   UNL     1     -39.951 149.319   2.932  1.00  0.00    +0.105 C 
ENDBRANCH  35  36
ENDBRANCH  33  35
ENDBRANCH  31  33
ENDBRANCH   4  31
TORSDOF 9
ENDMDL
MODEL 6
REMARK VINA RESULT:    -7.902      1.616      2.805
REMARK INTER + INTRA:         -14.195
REMARK INTER:                 -12.175
REMARK INTRA:                  -2.020
REMARK UNBOUND:                -2.136
REMARK SMILES COC(=O)c1ccc2c(c1)NC(=O)/C2=C(\Nc1ccc(N(C)C(=O)CN2CCN(C)CC2)cc1)c1ccccc1
REMARK SMILES IDX 17 1 18 2 19 3 20 4 33 5 34 6 16 7 15 9 5 10 6 11 10 12 7 13
REMARK SMILES IDX 9 14 8 15 11 16 14 17 12 18 13 19 3 21 4 22 2 23 1 24 35 25
REMARK SMILES IDX 36 26 40 27 37 28 39 29 38 30 21 31 22 32 23 33 24 34 25 35
REMARK SMILES IDX 26 36 27 37 32 38 28 39 31 40 29 41 30 42
REMARK H PARENT 16 8 11 20
ROOT
ATOM      1  C   UNL     1     -36.844 147.025   3.175  1.00  0.00    +0.039 A 
ATOM      2  C   UNL     1     -36.883 147.706   1.952  1.00  0.00    +0.028 A 
ATOM      3  C   UNL     1     -37.026 147.034   0.727  1.00  0.00    +0.028 A 
ATOM      4  C   UNL     1     -37.134 145.642   0.663  1.00  0.00    +0.043 A 
ATOM      5  C   UNL     1     -37.120 144.964   1.892  1.00  0.00    +0.028 A 
ATOM      6  C   UNL     1     -36.977 145.642   3.118  1.00  0.00    +0.028 A 
ENDROOT
BRANCH   1   7
ATOM      7  N   UNL     1     -36.743 147.795   4.346  1.00  0.00    -0.354 N 
ATOM      8  H   UNL     1     -36.301 147.272   5.110  1.00  0.00    +0.167 HD
BRANCH   7   9
ATOM      9  C   UNL     1     -37.176 149.058   4.744  1.00  0.00    +0.059 C 
ATOM     10  C   UNL     1     -36.115 153.944   6.785  1.00  0.00    +0.062 A 
ATOM     11  C   UNL     1     -37.355 153.576   6.219  1.00  0.00    +0.016 A 
ATOM     12  C   UNL     1     -35.063 153.022   6.820  1.00  0.00    +0.042 A 
ATOM     13  C   UNL     1     -37.559 152.290   5.694  1.00  0.00    +0.012 A 
ATOM     14  C   UNL     1     -35.295 151.763   6.295  1.00  0.00    +0.050 A 
ATOM     15  C   UNL     1     -36.523 151.373   5.746  1.00  0.00    +0.013 A 
ATOM     16  N   UNL     1     -34.367 150.732   6.216  1.00  0.00    -0.321 N 
ATOM     17  C   UNL     1     -36.348 149.974   5.305  1.00  0.00    +0.073 C 
ATOM     18  C   UNL     1     -34.908 149.617   5.609  1.00  0.00    +0.258 C 
ATOM     19  O   UNL     1     -34.340 148.567   5.365  1.00  0.00    -0.269 OA
ATOM     20  H   UNL     1     -33.407 150.774   6.523  1.00  0.00    +0.170 HD
BRANCH  10  21
ATOM     21  C   UNL     1     -35.869 155.299   7.348  1.00  0.00    +0.337 C 
ATOM     22  O   UNL     1     -36.762 156.031   7.746  1.00  0.00    -0.246 OA
BRANCH  21  23
ATOM     23  O   UNL     1     -34.545 155.586   7.352  1.00  0.00    -0.465 OA
ATOM     24  C   UNL     1     -34.207 156.776   6.636  1.00  0.00    +0.282 C 
ENDBRANCH  21  23
ENDBRANCH  10  21
BRANCH   9  25
ATOM     25  C   UNL     1     -38.573 149.450   4.474  1.00  0.00    -0.001 A 
ATOM     26  C   UNL     1     -39.582 149.184   5.414  1.00  0.00    +0.010 A 
ATOM     27  C   UNL     1     -38.904 150.104   3.279  1.00  0.00    +0.010 A 
ATOM     28  C   UNL     1     -40.900 149.569   5.162  1.00  0.00    +0.001 A 
ATOM     29  C   UNL     1     -40.224 150.488   3.030  1.00  0.00    +0.001 A 
ATOM     30  C   UNL     1     -41.219 150.221   3.971  1.00  0.00    +0.000 A 
ENDBRANCH   9  25
ENDBRANCH   7   9
ENDBRANCH   1   7
BRANCH   4  31
ATOM     31  N   UNL     1     -37.313 144.936  -0.587  1.00  0.00    -0.314 N 
ATOM     32  C   UNL     1     -38.100 145.596  -1.629  1.00  0.00    +0.153 C 
BRANCH  31  33
ATOM     33  C   UNL     1     -36.847 143.615  -0.775  1.00  0.00    +0.240 C 
ATOM     34  O   UNL     1     -37.539 142.612  -0.589  1.00  0.00    -0.273 OA
BRANCH  33  35
ATOM     35  C   UNL     1     -35.375 143.489  -1.240  1.00  0.00    +0.185 C 
BRANCH  35  36
ATOM     36  N   UNL     1     -34.554 144.648  -0.842  1.00  0.00    -0.292 NA
ATOM     37  C   UNL     1     -33.506 144.260   0.121  1.00  0.00    +0.100 C 
ATOM     38  C   UNL     1     -33.962 145.356  -1.985  1.00  0.00    +0.100 C 
ATOM     39  C   UNL     1     -32.298 145.234   0.188  1.00  0.00    +0.099 C 
ATOM     40  C   UNL     1     -33.197 146.639  -1.557  1.00  0.00    +0.099 C 
ATOM     41  N   UNL     1     -32.573 146.624  -0.214  1.00  0.00    -0.304 NA
ATOM     42  C   UNL     1     -33.441 147.283   0.765  1.00  0.00    +0.105 C 
ENDBRANCH  35  36
ENDBRANCH  33  35
ENDBRANCH  31  33
ENDBRANCH   4  31
TORSDOF 9
ENDMDL
MODEL 7
REMARK VINA RESULT:    -7.832      4.013     10.282
REMARK INTER + INTRA:         -14.089
REMARK INTER:                 -12.013
REMARK INTRA:                  -2.076
REMARK UNBOUND:                -2.136
REMARK SMILES COC(=O)c1ccc2c(c1)NC(=O)/C2=C(\Nc1ccc(N(C)C(=O)CN2CCN(C)CC2)cc1)c1ccccc1
REMARK SMILES IDX 17 1 18 2 19 3 20 4 33 5 34 6 16 7 15 9 5 10 6 11 10 12 7 13
REMARK SMILES IDX 9 14 8 15 11 16 14 17 12 18 13 19 3 21 4 22 2 23 1 24 35 25
REMARK SMILES IDX 36 26 40 27 37 28 39 29 38 30 21 31 22 32 23 33 24 34 25 35
REMARK SMILES IDX 26 36 27 37 32 38 28 39 31 40 29 41 30 42
REMARK H PARENT 16 8 11 20
ROOT
ATOM      1  C   UNL     1     -37.368 146.629   2.295  1.00  0.00    +0.039 A 
ATOM      2  C   UNL     1     -38.180 147.699   2.692  1.00  0.00    +0.028 A 
ATOM      3  C   UNL     1     -37.857 148.513   3.790  1.00  0.00    +0.028 A 
ATOM      4  C   UNL     1     -36.706 148.294   4.551  1.00  0.00    +0.043 A 
ATOM      5  C   UNL     1     -35.882 147.237   4.135  1.00  0.00    +0.028 A 
ATOM      6  C   UNL     1     -36.208 146.424   3.033  1.00  0.00    +0.028 A 
ENDROOT
BRANCH   1   7
ATOM      7  N   UNL     1     -37.757 145.905   1.155  1.00  0.00    -0.354 N 
ATOM      8  H   UNL     1     -37.743 144.892   1.322  1.00  0.00    +0.167 HD
BRANCH   7   9
ATOM      9  C   UNL     1     -38.069 146.224  -0.165  1.00  0.00    +0.059 C 
ATOM     10  C   UNL     1     -41.601 146.324  -4.250  1.00  0.00    +0.062 A 
ATOM     11  C   UNL     1     -40.345 146.969  -4.274  1.00  0.00    +0.016 A 
ATOM     12  C   UNL     1     -42.003 145.622  -3.106  1.00  0.00    +0.042 A 
ATOM     13  C   UNL     1     -39.479 146.913  -3.170  1.00  0.00    +0.012 A 
ATOM     14  C   UNL     1     -41.128 145.585  -2.036  1.00  0.00    +0.050 A 
ATOM     15  C   UNL     1     -39.870 146.203  -2.048  1.00  0.00    +0.013 A 
ATOM     16  N   UNL     1     -41.364 144.966  -0.815  1.00  0.00    -0.321 N 
ATOM     17  C   UNL     1     -39.267 145.927  -0.728  1.00  0.00    +0.073 C 
ATOM     18  C   UNL     1     -40.302 145.141   0.050  1.00  0.00    +0.258 C 
ATOM     19  O   UNL     1     -40.221 144.748   1.200  1.00  0.00    -0.269 OA
ATOM     20  H   UNL     1     -42.205 144.473  -0.553  1.00  0.00    +0.170 HD
BRANCH  10  21
ATOM     21  C   UNL     1     -42.539 146.367  -5.403  1.00  0.00    +0.337 C 
ATOM     22  O   UNL     1     -43.473 147.150  -5.478  1.00  0.00    -0.246 OA
BRANCH  21  23
ATOM     23  O   UNL     1     -42.209 145.433  -6.327  1.00  0.00    -0.465 OA
ATOM     24  C   UNL     1     -41.588 145.968  -7.498  1.00  0.00    +0.282 C 
ENDBRANCH  21  23
ENDBRANCH  10  21
BRANCH   9  25
ATOM     25  C   UNL     1     -37.090 146.985  -0.965  1.00  0.00    -0.001 A 
ATOM     26  C   UNL     1     -36.183 146.318  -1.805  1.00  0.00    +0.010 A 
ATOM     27  C   UNL     1     -37.062 148.385  -0.901  1.00  0.00    +0.010 A 
ATOM     28  C   UNL     1     -35.268 147.042  -2.571  1.00  0.00    +0.001 A 
ATOM     29  C   UNL     1     -36.145 149.106  -1.668  1.00  0.00    +0.001 A 
ATOM     30  C   UNL     1     -35.250 148.435  -2.502  1.00  0.00    +0.000 A 
ENDBRANCH   9  25
ENDBRANCH   7   9
ENDBRANCH   1   7
BRANCH   4  31
ATOM     31  N   UNL     1     -36.343 149.141   5.667  1.00  0.00    -0.314 N 
ATOM     32  C   UNL     1     -36.503 148.590   7.014  1.00  0.00    +0.153 C 
BRANCH  31  33
ATOM     33  C   UNL     1     -35.953 150.487   5.491  1.00  0.00    +0.240 C 
ATOM     34  O   UNL     1     -34.840 150.831   5.087  1.00  0.00    -0.273 OA
BRANCH  33  35
ATOM     35  C   UNL     1     -37.029 151.543   5.844  1.00  0.00    +0.185 C 
BRANCH  35  36
ATOM     36  N   UNL     1     -36.491 152.917   5.862  1.00  0.00    -0.292 NA
ATOM     37  C   UNL     1     -37.389 153.856   5.165  1.00  0.00    +0.100 C 
ATOM     38  C   UNL     1     -36.195 153.403   7.216  1.00  0.00    +0.100 C 
ATOM     39  C   UNL     1     -37.211 155.344   5.571  1.00  0.00    +0.099 C 
ATOM     40  C   UNL     1     -35.522 154.804   7.210  1.00  0.00    +0.099 C 
ATOM     41  N   UNL     1     -35.883 155.710   6.095  1.00  0.00    -0.304 NA
ATOM     42  C   UNL     1     -34.874 155.650   5.035  1.00  0.00    +0.105 C 
ENDBRANCH  35  36
ENDBRANCH  33  35
ENDBRANCH  31  33
ENDBRANCH   4  31
TORSDOF 9
ENDMDL
MODEL 8
REMARK VINA RESULT:    -7.703      3.780     10.131
REMARK INTER + INTRA:         -13.892
REMARK INTER:                 -11.813
REMARK INTRA:                  -2.079
REMARK UNBOUND:                -2.136
REMARK SMILES COC(=O)c1ccc2c(c1)NC(=O)/C2=C(\Nc1ccc(N(C)C(=O)CN2CCN(C)CC2)cc1)c1ccccc1
REMARK SMILES IDX 17 1 18 2 19 3 20 4 33 5 34 6 16 7 15 9 5 10 6 11 10 12 7 13
REMARK SMILES IDX 9 14 8 15 11 16 14 17 12 18 13 19 3 21 4 22 2 23 1 24 35 25
REMARK SMILES IDX 36 26 40 27 37 28 39 29 38 30 21 31 22 32 23 33 24 34 25 35
REMARK SMILES IDX 26 36 27 37 32 38 28 39 31 40 29 41 30 42
REMARK H PARENT 16 8 11 20
ROOT
ATOM      1  C   UNL     1     -37.376 148.988   4.267  1.00  0.00    +0.039 A 
ATOM      2  C   UNL     1     -36.040 148.839   4.658  1.00  0.00    +0.028 A 
ATOM      3  C   UNL     1     -35.338 149.859   5.323  1.00  0.00    +0.028 A 
ATOM      4  C   UNL     1     -35.940 151.084   5.626  1.00  0.00    +0.043 A 
ATOM      5  C   UNL     1     -37.286 151.220   5.255  1.00  0.00    +0.028 A 
ATOM      6  C   UNL     1     -37.985 150.194   4.590  1.00  0.00    +0.028 A 
ENDROOT
BRANCH   1   7
ATOM      7  N   UNL     1     -37.999 147.890   3.649  1.00  0.00    -0.354 N 
ATOM      8  H   UNL     1     -38.423 147.255   4.334  1.00  0.00    +0.167 HD
BRANCH   7   9
ATOM      9  C   UNL     1     -38.102 147.413   2.344  1.00  0.00    +0.059 C 
ATOM     10  C   UNL     1     -41.033 145.199  -1.616  1.00  0.00    +0.062 A 
ATOM     11  C   UNL     1     -39.732 145.720  -1.791  1.00  0.00    +0.016 A 
ATOM     12  C   UNL     1     -41.645 145.260  -0.358  1.00  0.00    +0.042 A 
ATOM     13  C   UNL     1     -39.030 146.294  -0.720  1.00  0.00    +0.012 A 
ATOM     14  C   UNL     1     -40.928 145.831   0.678  1.00  0.00    +0.050 A 
ATOM     15  C   UNL     1     -39.630 146.336   0.528  1.00  0.00    +0.013 A 
ATOM     16  N   UNL     1     -41.380 146.005   1.980  1.00  0.00    -0.321 N 
ATOM     17  C   UNL     1     -39.236 146.851   1.856  1.00  0.00    +0.073 C 
ATOM     18  C   UNL     1     -40.432 146.636   2.760  1.00  0.00    +0.258 C 
ATOM     19  O   UNL     1     -40.541 146.956   3.930  1.00  0.00    -0.269 OA
ATOM     20  H   UNL     1     -42.289 145.744   2.332  1.00  0.00    +0.170 HD
BRANCH  10  21
ATOM     21  C   UNL     1     -41.801 144.586  -2.732  1.00  0.00    +0.337 C 
ATOM     22  O   UNL     1     -42.998 144.349  -2.671  1.00  0.00    -0.246 OA
BRANCH  21  23
ATOM     23  O   UNL     1     -40.995 144.340  -3.793  1.00  0.00    -0.465 OA
ATOM     24  C   UNL     1     -41.698 144.011  -4.993  1.00  0.00    +0.282 C 
ENDBRANCH  21  23
ENDBRANCH  10  21
BRANCH   9  25
ATOM     25  C   UNL     1     -36.960 147.594   1.426  1.00  0.00    -0.001 A 
ATOM     26  C   UNL     1     -36.837 148.767   0.665  1.00  0.00    +0.010 A 
ATOM     27  C   UNL     1     -35.980 146.598   1.314  1.00  0.00    +0.010 A 
ATOM     28  C   UNL     1     -35.748 148.941  -0.192  1.00  0.00    +0.001 A 
ATOM     29  C   UNL     1     -34.892 146.775   0.456  1.00  0.00    +0.001 A 
ATOM     30  C   UNL     1     -34.777 147.945  -0.294  1.00  0.00    +0.000 A 
ENDBRANCH   9  25
ENDBRANCH   7   9
ENDBRANCH   1   7
BRANCH   4  31
ATOM     31  N   UNL     1     -35.242 152.133   6.336  1.00  0.00    -0.314 N 
ATOM     32  C   UNL     1     -35.598 152.353   7.739  1.00  0.00    +0.153 C 
BRANCH  31  33
ATOM     33  C   UNL     1     -34.329 152.997   5.690  1.00  0.00    +0.240 C 
ATOM     34  O   UNL     1     -33.802 152.749   4.604  1.00  0.00    -0.273 OA
BRANCH  33  35
ATOM     35  C   UNL     1     -34.012 154.313   6.443  1.00  0.00    +0.185 C 
BRANCH  35  36
ATOM     36  N   UNL     1     -34.821 155.449   5.961  1.00  0.00    -0.292 NA
ATOM     37  C   UNL     1     -35.641 156.023   7.044  1.00  0.00    +0.100 C 
ATOM     38  C   UNL     1     -34.018 156.498   5.318  1.00  0.00    +0.100 C 
ATOM     39  C   UNL     1     -36.095 157.489   6.805  1.00  0.00    +0.099 C 
ATOM     40  C   UNL     1     -34.896 157.630   4.714  1.00  0.00    +0.099 C 
ATOM     41  N   UNL     1     -36.180 157.910   5.396  1.00  0.00    -0.304 NA
ATOM     42  C   UNL     1     -37.284 157.226   4.717  1.00  0.00    +0.105 C 
ENDBRANCH  35  36
ENDBRANCH  33  35
ENDBRANCH  31  33
ENDBRANCH   4  31
TORSDOF 9
ENDMDL
MODEL 9
REMARK VINA RESULT:    -7.619      4.008      9.976
REMARK INTER + INTRA:         -13.763
REMARK INTER:                 -11.655
REMARK INTRA:                  -2.108
REMARK UNBOUND:                -2.136
REMARK SMILES COC(=O)c1ccc2c(c1)NC(=O)/C2=C(\Nc1ccc(N(C)C(=O)CN2CCN(C)CC2)cc1)c1ccccc1
REMARK SMILES IDX 17 1 18 2 19 3 20 4 33 5 34 6 16 7 15 9 5 10 6 11 10 12 7 13
REMARK SMILES IDX 9 14 8 15 11 16 14 17 12 18 13 19 3 21 4 22 2 23 1 24 35 25
REMARK SMILES IDX 36 26 40 27 37 28 39 29 38 30 21 31 22 32 23 33 24 34 25 35
REMARK SMILES IDX 26 36 27 37 32 38 28 39 31 40 29 41 30 42
REMARK H PARENT 16 8 11 20
ROOT
ATOM      1  C   UNL     1     -37.306 145.491   2.174  1.00  0.00    +0.039 A 
ATOM      2  C   UNL     1     -35.946 145.306   2.455  1.00  0.00    +0.028 A 
ATOM      3  C   UNL     1     -35.377 145.693   3.680  1.00  0.00    +0.028 A 
ATOM      4  C   UNL     1     -36.141 146.290   4.686  1.00  0.00    +0.043 A 
ATOM      5  C   UNL     1     -37.508 146.451   4.411  1.00  0.00    +0.028 A 
ATOM      6  C   UNL     1     -38.074 146.060   3.183  1.00  0.00    +0.028 A 
ENDROOT
BRANCH   1   7
ATOM      7  N   UNL     1     -37.784 145.027   0.937  1.00  0.00    -0.354 N 
ATOM      8  H   UNL     1     -37.815 144.002   0.899  1.00  0.00    +0.167 HD
BRANCH   7   9
ATOM      9  C   UNL     1     -38.139 145.618  -0.274  1.00  0.00    +0.059 C 
ATOM     10  C   UNL     1     -41.705 146.333  -4.267  1.00  0.00    +0.062 A 
ATOM     11  C   UNL     1     -40.519 147.086  -4.121  1.00  0.00    +0.016 A 
ATOM     12  C   UNL     1     -42.023 145.344  -3.328  1.00  0.00    +0.042 A 
ATOM     13  C   UNL     1     -39.641 146.857  -3.050  1.00  0.00    +0.012 A 
ATOM     14  C   UNL     1     -41.138 145.141  -2.285  1.00  0.00    +0.050 A 
ATOM     15  C   UNL     1     -39.948 145.865  -2.133  1.00  0.00    +0.013 A 
ATOM     16  N   UNL     1     -41.300 144.230  -1.249  1.00  0.00    -0.321 N 
ATOM     17  C   UNL     1     -39.308 145.346  -0.908  1.00  0.00    +0.073 C 
ATOM     18  C   UNL     1     -40.252 144.300  -0.353  1.00  0.00    +0.258 C 
ATOM     19  O   UNL     1     -40.120 143.655   0.672  1.00  0.00    -0.269 OA
ATOM     20  H   UNL     1     -42.084 143.609  -1.122  1.00  0.00    +0.170 HD
BRANCH  10  21
ATOM     21  C   UNL     1     -42.654 146.555  -5.390  1.00  0.00    +0.337 C 
ATOM     22  O   UNL     1     -43.501 147.435  -5.389  1.00  0.00    -0.246 OA
BRANCH  21  23
ATOM     23  O   UNL     1     -42.442 145.659  -6.384  1.00  0.00    -0.465 OA
ATOM     24  C   UNL     1     -41.605 146.144  -7.436  1.00  0.00    +0.282 C 
ENDBRANCH  21  23
ENDBRANCH  10  21
BRANCH   9  25
ATOM     25  C   UNL     1     -37.249 146.640  -0.857  1.00  0.00    -0.001 A 
ATOM     26  C   UNL     1     -37.314 147.974  -0.424  1.00  0.00    +0.010 A 
ATOM     27  C   UNL     1     -36.319 146.285  -1.845  1.00  0.00    +0.010 A 
ATOM     28  C   UNL     1     -36.461 148.935  -0.968  1.00  0.00    +0.001 A 
ATOM     29  C   UNL     1     -35.466 147.249  -2.387  1.00  0.00    +0.001 A 
ATOM     30  C   UNL     1     -35.537 148.571  -1.948  1.00  0.00    +0.000 A 
ENDBRANCH   9  25
ENDBRANCH   7   9
ENDBRANCH   1   7
BRANCH   4  31
ATOM     31  N   UNL     1     -35.578 146.667   5.964  1.00  0.00    -0.314 N 
ATOM     32  C   UNL     1     -35.749 145.735   7.080  1.00  0.00    +0.153 C 
BRANCH  31  33
ATOM     33  C   UNL     1     -34.979 147.929   6.176  1.00  0.00    +0.240 C 
ATOM     34  O   UNL     1     -33.877 148.249   5.725  1.00  0.00    -0.273 OA
BRANCH  33  35
ATOM     35  C   UNL     1     -35.803 148.921   7.034  1.00  0.00    +0.185 C 
BRANCH  35  36
ATOM     36  N   UNL     1     -35.571 150.328   6.653  1.00  0.00    -0.292 NA
ATOM     37  C   UNL     1     -36.500 150.757   5.591  1.00  0.00    +0.100 C 
ATOM     38  C   UNL     1     -35.636 151.252   7.793  1.00  0.00    +0.100 C 
ATOM     39  C   UNL     1     -36.709 152.293   5.497  1.00  0.00    +0.099 C 
ATOM     40  C   UNL     1     -35.275 152.711   7.395  1.00  0.00    +0.099 C 
ATOM     41  N   UNL     1     -35.604 153.122   6.010  1.00  0.00    -0.304 NA
ATOM     42  C   UNL     1     -34.427 153.008   5.146  1.00  0.00    +0.105 C 
ENDBRANCH  35  36
ENDBRANCH  33  35
ENDBRANCH  31  33
ENDBRANCH   4  31
TORSDOF 9
ENDMDL
MODEL 10
REMARK VINA RESULT:    -7.607      3.716      8.910
REMARK INTER + INTRA:         -13.746
REMARK INTER:                 -11.292
REMARK INTRA:                  -2.454
REMARK UNBOUND:                -2.136
REMARK SMILES COC(=O)c1ccc2c(c1)NC(=O)/C2=C(\Nc1ccc(N(C)C(=O)CN2CCN(C)CC2)cc1)c1ccccc1
REMARK SMILES IDX 17 1 18 2 19 3 20 4 33 5 34 6 16 7 15 9 5 10 6 11 10 12 7 13
REMARK SMILES IDX 9 14 8 15 11 16 14 17 12 18 13 19 3 21 4 22 2 23 1 24 35 25
REMARK SMILES IDX 36 26 40 27 37 28 39 29 38 30 21 31 22 32 23 33 24 34 25 35
REMARK SMILES IDX 26 36 27 37 32 38 28 39 31 40 29 41 30 42
REMARK H PARENT 16 8 11 20
ROOT
ATOM      1  C   UNL     1     -35.853 148.951   4.281  1.00  0.00    +0.039 A 
ATOM      2  C   UNL     1     -34.968 147.918   4.612  1.00  0.00    +0.028 A 
ATOM      3  C   UNL     1     -34.526 147.707   5.929  1.00  0.00    +0.028 A 
ATOM      4  C   UNL     1     -34.947 148.523   6.983  1.00  0.00    +0.043 A 
ATOM      5  C   UNL     1     -35.854 149.541   6.651  1.00  0.00    +0.028 A 
ATOM      6  C   UNL     1     -36.295 149.749   5.330  1.00  0.00    +0.028 A 
ENDROOT
BRANCH   1   7
ATOM      7  N   UNL     1     -36.268 149.048   2.942  1.00  0.00    -0.354 N 
ATOM      8  H   UNL     1     -35.568 149.516   2.357  1.00  0.00    +0.167 HD
BRANCH   7   9
ATOM      9  C   UNL     1     -37.432 148.743   2.239  1.00  0.00    +0.059 C 
ATOM     10  C   UNL     1     -39.865 146.925  -2.227  1.00  0.00    +0.062 A 
ATOM     11  C   UNL     1     -40.536 147.190  -1.013  1.00  0.00    +0.016 A 
ATOM     12  C   UNL     1     -38.480 147.112  -2.314  1.00  0.00    +0.042 A 
ATOM     13  C   UNL     1     -39.839 147.649   0.116  1.00  0.00    +0.012 A 
ATOM     14  C   UNL     1     -37.822 147.566  -1.186  1.00  0.00    +0.050 A 
ATOM     15  C   UNL     1     -38.472 147.852   0.022  1.00  0.00    +0.013 A 
ATOM     16  N   UNL     1     -36.454 147.781  -1.075  1.00  0.00    -0.321 N 
ATOM     17  C   UNL     1     -37.420 148.300   0.957  1.00  0.00    +0.073 C 
ATOM     18  C   UNL     1     -36.114 148.204   0.195  1.00  0.00    +0.258 C 
ATOM     19  O   UNL     1     -34.996 148.444   0.613  1.00  0.00    -0.269 OA
ATOM     20  H   UNL     1     -35.769 147.626  -1.799  1.00  0.00    +0.170 HD
BRANCH  10  21
ATOM     21  C   UNL     1     -40.577 146.437  -3.438  1.00  0.00    +0.337 C 
ATOM     22  O   UNL     1     -40.764 147.126  -4.429  1.00  0.00    -0.246 OA
BRANCH  21  23
ATOM     23  O   UNL     1     -40.973 145.151  -3.279  1.00  0.00    -0.465 OA
ATOM     24  C   UNL     1     -42.352 144.926  -3.579  1.00  0.00    +0.282 C 
ENDBRANCH  21  23
ENDBRANCH  10  21
BRANCH   9  25
ATOM     25  C   UNL     1     -38.730 148.827   2.937  1.00  0.00    -0.001 A 
ATOM     26  C   UNL     1     -39.239 147.717   3.631  1.00  0.00    +0.010 A 
ATOM     27  C   UNL     1     -39.462 150.023   2.923  1.00  0.00    +0.010 A 
ATOM     28  C   UNL     1     -40.460 147.805   4.302  1.00  0.00    +0.001 A 
ATOM     29  C   UNL     1     -40.683 150.107   3.596  1.00  0.00    +0.001 A 
ATOM     30  C   UNL     1     -41.180 149.000   4.284  1.00  0.00    +0.000 A 
ENDBRANCH   9  25
ENDBRANCH   7   9
ENDBRANCH   1   7
BRANCH   4  31
ATOM     31  N   UNL     1     -34.526 148.302   8.349  1.00  0.00    -0.314 N 
ATOM     32  C   UNL     1     -34.477 149.464   9.238  1.00  0.00    +0.153 C 
BRANCH  31  33
ATOM     33  C   UNL     1     -34.070 147.042   8.799  1.00  0.00    +0.240 C 
ATOM     34  O   UNL     1     -32.880 146.724   8.854  1.00  0.00    -0.273 OA
BRANCH  33  35
ATOM     35  C   UNL     1     -35.177 146.050   9.231  1.00  0.00    +0.185 C 
BRANCH  35  36
ATOM     36  N   UNL     1     -36.534 146.587   9.017  1.00  0.00    -0.292 NA
ATOM     37  C   UNL     1     -37.351 145.675   8.196  1.00  0.00    +0.100 C 
ATOM     38  C   UNL     1     -37.231 146.909  10.270  1.00  0.00    +0.100 C 
ATOM     39  C   UNL     1     -38.885 145.861   8.355  1.00  0.00    +0.099 C 
ATOM     40  C   UNL     1     -38.611 147.582  10.026  1.00  0.00    +0.099 C 
ATOM     41  N   UNL     1     -39.327 147.198   8.787  1.00  0.00    -0.304 NA
ATOM     42  C   UNL     1     -39.095 148.186   7.731  1.00  0.00    +0.105 C 
ENDBRANCH  35  36
ENDBRANCH  33  35
ENDBRANCH  31  33
ENDBRANCH   4  31
TORSDOF 9
ENDMDL
