MODEL 1
REMARK VINA RESULT:    -8.502      0.000      0.000
REMARK INTER + INTRA:         -15.135
REMARK INTER:                 -12.975
REMARK INTRA:                  -2.160
REMARK UNBOUND:                -2.160
REMARK SMILES COC(=O)c1ccc2c(c1)NC(=O)/C2=C(\Nc1ccc(N(C)C(=O)CN2CCN(C)CC2)cc1)c1ccccc1
REMARK SMILES IDX 17 1 18 2 19 3 20 4 33 5 34 6 16 7 15 9 5 10 6 11 10 12 7 13
REMARK SMILES IDX 9 14 8 15 11 16 14 17 12 18 13 19 3 21 4 22 2 23 1 24 35 25
REMARK SMILES IDX 36 26 40 27 37 28 39 29 38 30 21 31 22 32 23 33 24 34 25 35
REMARK SMILES IDX 26 36 27 37 32 38 28 39 31 40 29 41 30 42
REMARK H PARENT 16 8 11 20
ROOT
ATOM      1  C   UNL     1     -35.625 147.088   3.917  1.00  0.00    +0.039 A 
ATOM      2  C   UNL     1     -35.313 145.733   3.893  1.00  0.00    +0.028 A 
ATOM      3  C   UNL     1     -34.484 145.185   2.896  1.00  0.00    +0.028 A 
ATOM      4  C   UNL     1     -33.945 145.967   1.863  1.00  0.00    +0.043 A 
ATOM      5  C   UNL     1     -34.252 147.331   1.897  1.00  0.00    +0.028 A 
ATOM      6  C   UNL     1     -35.078 147.874   2.894  1.00  0.00    +0.028 A 
ENDROOT
BRANCH   1   7
ATOM      7  N   UNL     1     -36.478 147.716   4.838  1.00  0.00    -0.354 N 
ATOM      8  H   UNL     1     -36.882 147.051   5.508  1.00  0.00    +0.167 HD
BRANCH   7   9
ATOM      9  C   UNL     1     -36.939 149.017   5.031  1.00  0.00    +0.059 C 
ATOM     10  C   UNL     1     -36.121 154.067   6.759  1.00  0.00    +0.062 A 
ATOM     11  C   UNL     1     -37.245 153.661   6.008  1.00  0.00    +0.016 A 
ATOM     12  C   UNL     1     -35.123 153.139   7.077  1.00  0.00    +0.042 A 
ATOM     13  C   UNL     1     -37.389 152.332   5.579  1.00  0.00    +0.012 A 
ATOM     14  C   UNL     1     -35.293 151.839   6.641  1.00  0.00    +0.050 A 
ATOM     15  C   UNL     1     -36.411 151.411   5.911  1.00  0.00    +0.013 A 
ATOM     16  N   UNL     1     -34.398 150.793   6.833  1.00  0.00    -0.321 N 
ATOM     17  C   UNL     1     -36.200 149.973   5.646  1.00  0.00    +0.073 C 
ATOM     18  C   UNL     1     -34.852 149.630   6.243  1.00  0.00    +0.258 C 
ATOM     19  O   UNL     1     -34.280 148.554   6.210  1.00  0.00    -0.269 OA
ATOM     20  H   UNL     1     -33.510 150.853   7.307  1.00  0.00    +0.170 HD
BRANCH  10  21
ATOM     21  C   UNL     1     -35.941 155.468   7.227  1.00  0.00    +0.337 C 
ATOM     22  O   UNL     1     -36.870 156.240   7.403  1.00  0.00    -0.246 OA
BRANCH  21  23
ATOM     23  O   UNL     1     -34.628 155.746   7.421  1.00  0.00    -0.465 OA
ATOM     24  C   UNL     1     -34.131 156.802   6.598  1.00  0.00    +0.282 C 
ENDBRANCH  21  23
ENDBRANCH  10  21
BRANCH   9  25
ATOM     25  C   UNL     1     -38.253 149.396   4.474  1.00  0.00    -0.001 A 
ATOM     26  C   UNL     1     -38.376 149.765   3.125  1.00  0.00    +0.010 A 
ATOM     27  C   UNL     1     -39.395 149.381   5.287  1.00  0.00    +0.010 A 
ATOM     28  C   UNL     1     -39.623 150.111   2.600  1.00  0.00    +0.001 A 
ATOM     29  C   UNL     1     -40.640 149.728   4.760  1.00  0.00    +0.001 A 
ATOM     30  C   UNL     1     -40.753 150.091   3.417  1.00  0.00    +0.000 A 
ENDBRANCH   9  25
ENDBRANCH   7   9
ENDBRANCH   1   7
BRANCH   4  31
ATOM     31  N   UNL     1     -33.074 145.395   0.858  1.00  0.00    -0.314 N 
ATOM     32  C   UNL     1     -32.327 144.190   1.224  1.00  0.00    +0.153 C 
BRANCH  31  33
ATOM     33  C   UNL     1     -33.015 145.905  -0.458  1.00  0.00    +0.240 C 
ATOM     34  O   UNL     1     -32.159 146.706  -0.841  1.00  0.00    -0.273 OA
BRANCH  33  35
ATOM     35  C   UNL     1     -34.119 145.400  -1.420  1.00  0.00    +0.185 C 
BRANCH  35  36
ATOM     36  N   UNL     1     -35.429 146.066  -1.297  1.00  0.00    -0.292 NA
ATOM     37  C   UNL     1     -36.570 145.224  -1.669  1.00  0.00    +0.100 C 
ATOM     38  C   UNL     1     -35.489 147.384  -1.954  1.00  0.00    +0.100 C 
ATOM     39  C   UNL     1     -37.932 145.888  -1.326  1.00  0.00    +0.099 C 
ATOM     40  C   UNL     1     -36.924 147.844  -2.324  1.00  0.00    +0.099 C 
ATOM     41  N   UNL     1     -37.993 147.365  -1.426  1.00  0.00    -0.304 NA
ATOM     42  C   UNL     1     -37.879 147.983  -0.104  1.00  0.00    +0.105 C 
ENDBRANCH  35  36
ENDBRANCH  33  35
ENDBRANCH  31  33
ENDBRANCH   4  31
TORSDOF 9
ENDMDL
MODEL 2
REMARK VINA RESULT:    -8.345      1.062      1.332
REMARK INTER + INTRA:         -14.895
REMARK INTER:                 -12.447
REMARK INTRA:                  -2.448
REMARK UNBOUND:                -2.160
REMARK SMILES COC(=O)c1ccc2c(c1)NC(=O)/C2=C(\Nc1ccc(N(C)C(=O)CN2CCN(C)CC2)cc1)c1ccccc1
REMARK SMILES IDX 17 1 18 2 19 3 20 4 33 5 34 6 16 7 15 9 5 10 6 11 10 12 7 13
REMARK SMILES IDX 9 14 8 15 11 16 14 17 12 18 13 19 3 21 4 22 2 23 1 24 35 25
REMARK SMILES IDX 36 26 40 27 37 28 39 29 38 30 21 31 22 32 23 33 24 34 25 35
REMARK SMILES IDX 26 36 27 37 32 38 28 39 31 40 29 41 30 42
REMARK H PARENT 16 8 11 20
ROOT
ATOM      1  C   UNL     1     -35.764 146.868   4.344  1.00  0.00    +0.039 A 
ATOM      2  C   UNL     1     -35.748 145.478   4.327  1.00  0.00    +0.028 A 
ATOM      3  C   UNL     1     -35.091 144.761   3.309  1.00  0.00    +0.028 A 
ATOM      4  C   UNL     1     -34.438 145.405   2.247  1.00  0.00    +0.043 A 
ATOM      5  C   UNL     1     -34.446 146.803   2.274  1.00  0.00    +0.028 A 
ATOM      6  C   UNL     1     -35.100 147.515   3.292  1.00  0.00    +0.028 A 
ENDROOT
BRANCH   1   7
ATOM      7  N   UNL     1     -36.429 147.669   5.286  1.00  0.00    -0.354 N 
ATOM      8  H   UNL     1     -36.649 147.152   6.146  1.00  0.00    +0.167 HD
BRANCH   7   9
ATOM      9  C   UNL     1     -36.898 148.980   5.314  1.00  0.00    +0.059 C 
ATOM     10  C   UNL     1     -36.171 154.188   6.546  1.00  0.00    +0.062 A 
ATOM     11  C   UNL     1     -37.250 153.700   5.779  1.00  0.00    +0.016 A 
ATOM     12  C   UNL     1     -35.194 153.302   7.017  1.00  0.00    +0.042 A 
ATOM     13  C   UNL     1     -37.372 152.333   5.484  1.00  0.00    +0.012 A 
ATOM     14  C   UNL     1     -35.341 151.963   6.710  1.00  0.00    +0.050 A 
ATOM     15  C   UNL     1     -36.416 151.456   5.967  1.00  0.00    +0.013 A 
ATOM     16  N   UNL     1     -34.461 150.946   7.062  1.00  0.00    -0.321 N 
ATOM     17  C   UNL     1     -36.193 149.999   5.867  1.00  0.00    +0.073 C 
ATOM     18  C   UNL     1     -34.882 149.726   6.573  1.00  0.00    +0.258 C 
ATOM     19  O   UNL     1     -34.312 148.656   6.686  1.00  0.00    -0.269 OA
ATOM     20  H   UNL     1     -33.601 151.060   7.578  1.00  0.00    +0.170 HD
BRANCH  10  21
ATOM     21  C   UNL     1     -36.015 155.631   6.873  1.00  0.00    +0.337 C 
ATOM     22  O   UNL     1     -36.917 156.445   6.759  1.00  0.00    -0.246 OA
BRANCH  21  23
ATOM     23  O   UNL     1     -34.757 155.894   7.305  1.00  0.00    -0.465 OA
ATOM     24  C   UNL     1     -34.052 156.839   6.498  1.00  0.00    +0.282 C 
ENDBRANCH  21  23
ENDBRANCH  10  21
BRANCH   9  25
ATOM     25  C   UNL     1     -38.176 149.293   4.646  1.00  0.00    -0.001 A 
ATOM     26  C   UNL     1     -39.360 149.411   5.391  1.00  0.00    +0.010 A 
ATOM     27  C   UNL     1     -38.218 149.486   3.258  1.00  0.00    +0.010 A 
ATOM     28  C   UNL     1     -40.565 149.718   4.756  1.00  0.00    +0.001 A 
ATOM     29  C   UNL     1     -39.424 149.793   2.626  1.00  0.00    +0.001 A 
ATOM     30  C   UNL     1     -40.596 149.911   3.375  1.00  0.00    +0.000 A 
ENDBRANCH   9  25
ENDBRANCH   7   9
ENDBRANCH   1   7
BRANCH   4  31
ATOM     31  N   UNL     1     -33.746 144.655   1.219  1.00  0.00    -0.314 N 
ATOM     32  C   UNL     1     -32.290 144.550   1.330  1.00  0.00    +0.153 C 
BRANCH  31  33
ATOM     33  C   UNL     1     -34.442 143.959   0.205  1.00  0.00    +0.240 C 
ATOM     34  O   UNL     1     -34.929 142.837   0.360  1.00  0.00    -0.273 OA
BRANCH  33  35
ATOM     35  C   UNL     1     -34.556 144.696  -1.152  1.00  0.00    +0.185 C 
BRANCH  35  36
ATOM     36  N   UNL     1     -35.312 145.962  -1.131  1.00  0.00    -0.292 NA
ATOM     37  C   UNL     1     -36.727 145.823  -1.488  1.00  0.00    +0.100 C 
ATOM     38  C   UNL     1     -34.666 147.052  -1.882  1.00  0.00    +0.100 C 
ATOM     39  C   UNL     1     -37.528 147.134  -1.250  1.00  0.00    +0.099 C 
ATOM     40  C   UNL     1     -35.640 148.170  -2.343  1.00  0.00    +0.099 C 
ATOM     41  N   UNL     1     -36.797 148.405  -1.457  1.00  0.00    -0.304 NA
ATOM     42  C   UNL     1     -36.368 148.976  -0.180  1.00  0.00    +0.105 C 
ENDBRANCH  35  36
ENDBRANCH  33  35
ENDBRANCH  31  33
ENDBRANCH   4  31
TORSDOF 9
ENDMDL
MODEL 3
REMARK VINA RESULT:    -8.341      4.343      9.430
REMARK INTER + INTRA:         -14.890
REMARK INTER:                 -12.900
REMARK INTRA:                  -1.990
REMARK UNBOUND:                -2.160
REMARK SMILES COC(=O)c1ccc2c(c1)NC(=O)/C2=C(\Nc1ccc(N(C)C(=O)CN2CCN(C)CC2)cc1)c1ccccc1
REMARK SMILES IDX 17 1 18 2 19 3 20 4 33 5 34 6 16 7 15 9 5 10 6 11 10 12 7 13
REMARK SMILES IDX 9 14 8 15 11 16 14 17 12 18 13 19 3 21 4 22 2 23 1 24 35 25
REMARK SMILES IDX 36 26 40 27 37 28 39 29 38 30 21 31 22 32 23 33 24 34 25 35
REMARK SMILES IDX 26 36 27 37 32 38 28 39 31 40 29 41 30 42
REMARK H PARENT 16 8 11 20
ROOT
ATOM      1  C   UNL     1     -37.139 152.962   6.248  1.00  0.00    +0.039 A 
ATOM      2  C   UNL     1     -37.983 153.871   6.875  1.00  0.00    +0.028 A 
ATOM      3  C   UNL     1     -37.873 155.256   6.651  1.00  0.00    +0.028 A 
ATOM      4  C   UNL     1     -36.895 155.798   5.804  1.00  0.00    +0.043 A 
ATOM      5  C   UNL     1     -36.055 154.880   5.165  1.00  0.00    +0.028 A 
ATOM      6  C   UNL     1     -36.169 153.499   5.390  1.00  0.00    +0.028 A 
ENDROOT
BRANCH   1   7
ATOM      7  N   UNL     1     -37.140 151.572   6.443  1.00  0.00    -0.354 N 
ATOM      8  H   UNL     1     -36.910 151.317   7.411  1.00  0.00    +0.167 HD
BRANCH   7   9
ATOM      9  C   UNL     1     -37.335 150.459   5.627  1.00  0.00    +0.059 C 
ATOM     10  C   UNL     1     -35.527 145.835   3.504  1.00  0.00    +0.062 A 
ATOM     11  C   UNL     1     -36.860 146.285   3.399  1.00  0.00    +0.016 A 
ATOM     12  C   UNL     1     -34.588 146.595   4.213  1.00  0.00    +0.042 A 
ATOM     13  C   UNL     1     -37.268 147.493   3.987  1.00  0.00    +0.012 A 
ATOM     14  C   UNL     1     -35.019 147.779   4.780  1.00  0.00    +0.050 A 
ATOM     15  C   UNL     1     -36.334 148.252   4.671  1.00  0.00    +0.013 A 
ATOM     16  N   UNL     1     -34.243 148.645   5.542  1.00  0.00    -0.321 N 
ATOM     17  C   UNL     1     -36.371 149.530   5.412  1.00  0.00    +0.073 C 
ATOM     18  C   UNL     1     -34.984 149.721   5.988  1.00  0.00    +0.258 C 
ATOM     19  O   UNL     1     -34.598 150.630   6.702  1.00  0.00    -0.269 OA
ATOM     20  H   UNL     1     -33.273 148.513   5.783  1.00  0.00    +0.170 HD
BRANCH  10  21
ATOM     21  C   UNL     1     -35.067 144.559   2.891  1.00  0.00    +0.337 C 
ATOM     22  O   UNL     1     -34.701 143.596   3.546  1.00  0.00    -0.246 OA
BRANCH  21  23
ATOM     23  O   UNL     1     -35.114 144.630   1.538  1.00  0.00    -0.465 OA
ATOM     24  C   UNL     1     -33.864 144.365   0.899  1.00  0.00    +0.282 C 
ENDBRANCH  21  23
ENDBRANCH  10  21
BRANCH   9  25
ATOM     25  C   UNL     1     -38.669 150.236   5.035  1.00  0.00    -0.001 A 
ATOM     26  C   UNL     1     -38.982 150.752   3.767  1.00  0.00    +0.010 A 
ATOM     27  C   UNL     1     -39.636 149.497   5.732  1.00  0.00    +0.010 A 
ATOM     28  C   UNL     1     -40.241 150.528   3.207  1.00  0.00    +0.001 A 
ATOM     29  C   UNL     1     -40.894 149.276   5.169  1.00  0.00    +0.001 A 
ATOM     30  C   UNL     1     -41.194 149.789   3.907  1.00  0.00    +0.000 A 
ENDBRANCH   9  25
ENDBRANCH   7   9
ENDBRANCH   1   7
BRANCH   4  31
ATOM     31  N   UNL     1     -36.808 157.223   5.563  1.00  0.00    -0.314 N 
ATOM     32  C   UNL     1     -36.418 158.072   6.690  1.00  0.00    +0.153 C 
BRANCH  31  33
ATOM     33  C   UNL     1     -36.988 157.776   4.275  1.00  0.00    +0.240 C 
ATOM     34  O   UNL     1     -36.196 158.566   3.757  1.00  0.00    -0.273 OA
BRANCH  33  35
ATOM     35  C   UNL     1     -38.271 157.332   3.531  1.00  0.00    +0.185 C 
BRANCH  35  36
ATOM     36  N   UNL     1     -38.774 158.269   2.509  1.00  0.00    -0.292 NA
ATOM     37  C   UNL     1     -40.235 158.395   2.475  1.00  0.00    +0.100 C 
ATOM     38  C   UNL     1     -38.217 158.038   1.165  1.00  0.00    +0.100 C 
ATOM     39  C   UNL     1     -40.708 159.540   1.537  1.00  0.00    +0.099 C 
ATOM     40  C   UNL     1     -39.093 158.594   0.010  1.00  0.00    +0.099 C 
ATOM     41  N   UNL     1     -39.879 159.799   0.337  1.00  0.00    -0.304 NA
ATOM     42  C   UNL     1     -39.003 160.952   0.547  1.00  0.00    +0.105 C 
ENDBRANCH  35  36
ENDBRANCH  33  35
ENDBRANCH  31  33
ENDBRANCH   4  31
TORSDOF 9
ENDMDL
MODEL 4
REMARK VINA RESULT:    -8.155      2.153      4.268
REMARK INTER + INTRA:         -14.605
REMARK INTER:                 -12.612
REMARK INTRA:                  -1.993
REMARK UNBOUND:                -2.160
REMARK SMILES COC(=O)c1ccc2c(c1)NC(=O)/C2=C(\Nc1ccc(N(C)C(=O)CN2CCN(C)CC2)cc1)c1ccccc1
REMARK SMILES IDX 17 1 18 2 19 3 20 4 33 5 34 6 16 7 15 9 5 10 6 11 10 12 7 13
REMARK SMILES IDX 9 14 8 15 11 16 14 17 12 18 13 19 3 21 4 22 2 23 1 24 35 25
REMARK SMILES IDX 36 26 40 27 37 28 39 29 38 30 21 31 22 32 23 33 24 34 25 35
REMARK SMILES IDX 26 36 27 37 32 38 28 39 31 40 29 41 30 42
REMARK H PARENT 16 8 11 20
ROOT
ATOM      1  C   UNL     1     -38.603 148.486   2.645  1.00  0.00    +0.039 A 
ATOM      2  C   UNL     1     -39.683 148.029   1.900  1.00  0.00    +0.028 A 
ATOM      3  C   UNL     1     -39.544 147.662   0.547  1.00  0.00    +0.028 A 
ATOM      4  C   UNL     1     -38.317 147.756  -0.127  1.00  0.00    +0.043 A 
ATOM      5  C   UNL     1     -37.230 148.205   0.630  1.00  0.00    +0.028 A 
ATOM      6  C   UNL     1     -37.373 148.569   1.979  1.00  0.00    +0.028 A 
ENDROOT
BRANCH   1   7
ATOM      7  N   UNL     1     -38.653 148.919   3.980  1.00  0.00    -0.354 N 
ATOM      8  H   UNL     1     -39.546 148.686   4.429  1.00  0.00    +0.167 HD
BRANCH   7   9
ATOM      9  C   UNL     1     -37.797 149.626   4.822  1.00  0.00    +0.059 C 
ATOM     10  C   UNL     1     -35.939 154.319   6.741  1.00  0.00    +0.062 A 
ATOM     11  C   UNL     1     -35.614 153.058   7.286  1.00  0.00    +0.016 A 
ATOM     12  C   UNL     1     -36.812 154.403   5.649  1.00  0.00    +0.042 A 
ATOM     13  C   UNL     1     -36.144 151.876   6.746  1.00  0.00    +0.012 A 
ATOM     14  C   UNL     1     -37.316 153.222   5.139  1.00  0.00    +0.050 A 
ATOM     15  C   UNL     1     -36.991 151.960   5.653  1.00  0.00    +0.013 A 
ATOM     16  N   UNL     1     -38.214 153.110   4.084  1.00  0.00    -0.321 N 
ATOM     17  C   UNL     1     -37.735 150.981   4.835  1.00  0.00    +0.073 C 
ATOM     18  C   UNL     1     -38.544 151.791   3.845  1.00  0.00    +0.258 C 
ATOM     19  O   UNL     1     -39.328 151.373   3.011  1.00  0.00    -0.269 OA
ATOM     20  H   UNL     1     -38.616 153.876   3.565  1.00  0.00    +0.170 HD
BRANCH  10  21
ATOM     21  C   UNL     1     -35.394 155.589   7.293  1.00  0.00    +0.337 C 
ATOM     22  O   UNL     1     -34.229 155.727   7.629  1.00  0.00    -0.246 OA
BRANCH  21  23
ATOM     23  O   UNL     1     -36.361 156.538   7.363  1.00  0.00    -0.465 OA
ATOM     24  C   UNL     1     -35.968 157.806   6.836  1.00  0.00    +0.282 C 
ENDBRANCH  21  23
ENDBRANCH  10  21
BRANCH   9  25
ATOM     25  C   UNL     1     -36.981 148.877   5.799  1.00  0.00    -0.001 A 
ATOM     26  C   UNL     1     -37.504 148.542   7.058  1.00  0.00    +0.010 A 
ATOM     27  C   UNL     1     -35.675 148.485   5.473  1.00  0.00    +0.010 A 
ATOM     28  C   UNL     1     -36.732 147.824   7.973  1.00  0.00    +0.001 A 
ATOM     29  C   UNL     1     -34.906 147.767   6.390  1.00  0.00    +0.001 A 
ATOM     30  C   UNL     1     -35.435 147.436   7.638  1.00  0.00    +0.000 A 
ENDBRANCH   9  25
ENDBRANCH   7   9
ENDBRANCH   1   7
BRANCH   4  31
ATOM     31  N   UNL     1     -38.182 147.352  -1.511  1.00  0.00    -0.314 N 
ATOM     32  C   UNL     1     -39.356 146.762  -2.155  1.00  0.00    +0.153 C 
BRANCH  31  33
ATOM     33  C   UNL     1     -37.006 147.607  -2.252  1.00  0.00    +0.240 C 
ATOM     34  O   UNL     1     -36.753 148.694  -2.775  1.00  0.00    -0.273 OA
BRANCH  33  35
ATOM     35  C   UNL     1     -36.028 146.413  -2.384  1.00  0.00    +0.185 C 
BRANCH  35  36
ATOM     36  N   UNL     1     -34.992 146.316  -1.339  1.00  0.00    -0.292 NA
ATOM     37  C   UNL     1     -33.618 146.381  -1.847  1.00  0.00    +0.100 C 
ATOM     38  C   UNL     1     -35.179 145.181  -0.420  1.00  0.00    +0.100 C 
ATOM     39  C   UNL     1     -32.569 146.488  -0.705  1.00  0.00    +0.099 C 
ATOM     40  C   UNL     1     -33.881 144.727   0.301  1.00  0.00    +0.099 C 
ATOM     41  N   UNL     1     -32.897 145.794   0.562  1.00  0.00    -0.304 NA
ATOM     42  C   UNL     1     -33.403 146.738   1.559  1.00  0.00    +0.105 C 
ENDBRANCH  35  36
ENDBRANCH  33  35
ENDBRANCH  31  33
ENDBRANCH   4  31
TORSDOF 9
ENDMDL
MODEL 5
REMARK VINA RESULT:    -7.918      4.073      9.781
REMARK INTER + INTRA:         -14.244
REMARK INTER:                 -11.778
REMARK INTRA:                  -2.466
REMARK UNBOUND:                -2.160
REMARK SMILES COC(=O)c1ccc2c(c1)NC(=O)/C2=C(\Nc1ccc(N(C)C(=O)CN2CCN(C)CC2)cc1)c1ccccc1
REMARK SMILES IDX 17 1 18 2 19 3 20 4 33 5 34 6 16 7 15 9 5 10 6 11 10 12 7 13
REMARK SMILES IDX 9 14 8 15 11 16 14 17 12 18 13 19 3 21 4 22 2 23 1 24 35 25
REMARK SMILES IDX 36 26 40 27 37 28 39 29 38 30 21 31 22 32 23 33 24 34 25 35
REMARK SMILES IDX 26 36 27 37 32 38 28 39 31 40 29 41 30 42
REMARK H PARENT 16 8 11 20
ROOT
ATOM      1  C   UNL     1     -37.121 145.284   2.014  1.00  0.00    +0.039 A 
ATOM      2  C   UNL     1     -35.776 145.501   2.293  1.00  0.00    +0.028 A 
ATOM      3  C   UNL     1     -35.351 145.979   3.547  1.00  0.00    +0.028 A 
ATOM      4  C   UNL     1     -36.257 146.284   4.573  1.00  0.00    +0.043 A 
ATOM      5  C   UNL     1     -37.608 146.053   4.293  1.00  0.00    +0.028 A 
ATOM      6  C   UNL     1     -38.028 145.574   3.042  1.00  0.00    +0.028 A 
ENDROOT
BRANCH   1   7
ATOM      7  N   UNL     1     -37.644 144.856   0.783  1.00  0.00    -0.354 N 
ATOM      8  H   UNL     1     -37.724 143.833   0.732  1.00  0.00    +0.167 HD
BRANCH   7   9
ATOM      9  C   UNL     1     -38.037 145.485  -0.396  1.00  0.00    +0.059 C 
ATOM     10  C   UNL     1     -41.713 146.301  -4.266  1.00  0.00    +0.062 A 
ATOM     11  C   UNL     1     -40.538 147.068  -4.118  1.00  0.00    +0.016 A 
ATOM     12  C   UNL     1     -41.992 145.270  -3.361  1.00  0.00    +0.042 A 
ATOM     13  C   UNL     1     -39.629 146.811  -3.080  1.00  0.00    +0.012 A 
ATOM     14  C   UNL     1     -41.078 145.040  -2.350  1.00  0.00    +0.050 A 
ATOM     15  C   UNL     1     -39.896 145.777  -2.198  1.00  0.00    +0.013 A 
ATOM     16  N   UNL     1     -41.199 144.086  -1.347  1.00  0.00    -0.321 N 
ATOM     17  C   UNL     1     -39.217 145.220  -1.010  1.00  0.00    +0.073 C 
ATOM     18  C   UNL     1     -40.131 144.138  -0.474  1.00  0.00    +0.258 C 
ATOM     19  O   UNL     1     -39.965 143.455   0.521  1.00  0.00    -0.269 OA
ATOM     20  H   UNL     1     -41.972 143.449  -1.226  1.00  0.00    +0.170 HD
BRANCH  10  21
ATOM     21  C   UNL     1     -42.695 146.552  -5.357  1.00  0.00    +0.337 C 
ATOM     22  O   UNL     1     -43.501 147.468  -5.335  1.00  0.00    -0.246 OA
BRANCH  21  23
ATOM     23  O   UNL     1     -42.561 145.634  -6.345  1.00  0.00    -0.465 OA
ATOM     24  C   UNL     1     -41.598 145.989  -7.340  1.00  0.00    +0.282 C 
ENDBRANCH  21  23
ENDBRANCH  10  21
BRANCH   9  25
ATOM     25  C   UNL     1     -37.174 146.540  -0.962  1.00  0.00    -0.001 A 
ATOM     26  C   UNL     1     -36.236 146.235  -1.961  1.00  0.00    +0.010 A 
ATOM     27  C   UNL     1     -37.289 147.863  -0.511  1.00  0.00    +0.010 A 
ATOM     28  C   UNL     1     -35.430 147.240  -2.501  1.00  0.00    +0.001 A 
ATOM     29  C   UNL     1     -36.482 148.864  -1.052  1.00  0.00    +0.001 A 
ATOM     30  C   UNL     1     -35.555 148.552  -2.048  1.00  0.00    +0.000 A 
ENDBRANCH   9  25
ENDBRANCH   7   9
ENDBRANCH   1   7
BRANCH   4  31
ATOM     31  N   UNL     1     -35.805 146.752   5.867  1.00  0.00    -0.314 N 
ATOM     32  C   UNL     1     -35.381 145.740   6.837  1.00  0.00    +0.153 C 
BRANCH  31  33
ATOM     33  C   UNL     1     -35.672 148.128   6.159  1.00  0.00    +0.240 C 
ATOM     34  O   UNL     1     -34.658 148.783   5.906  1.00  0.00    -0.273 OA
BRANCH  33  35
ATOM     35  C   UNL     1     -36.896 148.787   6.840  1.00  0.00    +0.185 C 
BRANCH  35  36
ATOM     36  N   UNL     1     -37.946 149.281   5.929  1.00  0.00    -0.292 NA
ATOM     37  C   UNL     1     -37.908 150.728   5.694  1.00  0.00    +0.100 C 
ATOM     38  C   UNL     1     -39.301 148.824   6.282  1.00  0.00    +0.100 C 
ATOM     39  C   UNL     1     -38.889 151.171   4.574  1.00  0.00    +0.099 C 
ATOM     40  C   UNL     1     -40.439 149.724   5.729  1.00  0.00    +0.099 C 
ATOM     41  N   UNL     1     -40.146 150.399   4.450  1.00  0.00    -0.304 NA
ATOM     42  C   UNL     1     -40.059 149.430   3.357  1.00  0.00    +0.105 C 
ENDBRANCH  35  36
ENDBRANCH  33  35
ENDBRANCH  31  33
ENDBRANCH   4  31
TORSDOF 9
ENDMDL
MODEL 6
REMARK VINA RESULT:    -7.817      1.805      3.044
REMARK INTER + INTRA:         -14.090
REMARK INTER:                 -11.927
REMARK INTRA:                  -2.163
REMARK UNBOUND:                -2.160
REMARK SMILES COC(=O)c1ccc2c(c1)NC(=O)/C2=C(\Nc1ccc(N(C)C(=O)CN2CCN(C)CC2)cc1)c1ccccc1
REMARK SMILES IDX 17 1 18 2 19 3 20 4 33 5 34 6 16 7 15 9 5 10 6 11 10 12 7 13
REMARK SMILES IDX 9 14 8 15 11 16 14 17 12 18 13 19 3 21 4 22 2 23 1 24 35 25
REMARK SMILES IDX 36 26 40 27 37 28 39 29 38 30 21 31 22 32 23 33 24 34 25 35
REMARK SMILES IDX 26 36 27 37 32 38 28 39 31 40 29 41 30 42
REMARK H PARENT 16 8 11 20
ROOT
ATOM      1  C   UNL     1     -36.970 146.725   3.542  1.00  0.00    +0.039 A 
ATOM      2  C   UNL     1     -37.078 147.007   2.185  1.00  0.00    +0.028 A 
ATOM      3  C   UNL     1     -37.328 145.996   1.239  1.00  0.00    +0.028 A 
ATOM      4  C   UNL     1     -37.461 144.648   1.608  1.00  0.00    +0.043 A 
ATOM      5  C   UNL     1     -37.364 144.370   2.974  1.00  0.00    +0.028 A 
ATOM      6  C   UNL     1     -37.115 145.382   3.915  1.00  0.00    +0.028 A 
ENDROOT
BRANCH   1   7
ATOM      7  N   UNL     1     -36.675 147.655   4.552  1.00  0.00    -0.354 N 
ATOM      8  H   UNL     1     -36.007 147.283   5.238  1.00  0.00    +0.167 HD
BRANCH   7   9
ATOM      9  C   UNL     1     -37.106 148.941   4.867  1.00  0.00    +0.059 C 
ATOM     10  C   UNL     1     -36.062 153.912   6.701  1.00  0.00    +0.062 A 
ATOM     11  C   UNL     1     -37.279 153.533   6.095  1.00  0.00    +0.016 A 
ATOM     12  C   UNL     1     -35.028 152.978   6.834  1.00  0.00    +0.042 A 
ATOM     13  C   UNL     1     -37.480 152.224   5.628  1.00  0.00    +0.012 A 
ATOM     14  C   UNL     1     -35.255 151.698   6.365  1.00  0.00    +0.050 A 
ATOM     15  C   UNL     1     -36.463 151.297   5.778  1.00  0.00    +0.013 A 
ATOM     16  N   UNL     1     -34.342 150.651   6.382  1.00  0.00    -0.321 N 
ATOM     17  C   UNL     1     -36.290 149.874   5.419  1.00  0.00    +0.073 C 
ATOM     18  C   UNL     1     -34.872 149.513   5.807  1.00  0.00    +0.258 C 
ATOM     19  O   UNL     1     -34.309 148.445   5.644  1.00  0.00    -0.269 OA
ATOM     20  H   UNL     1     -33.396 150.697   6.730  1.00  0.00    +0.170 HD
BRANCH  10  21
ATOM     21  C   UNL     1     -35.820 155.292   7.205  1.00  0.00    +0.337 C 
ATOM     22  O   UNL     1     -36.709 156.020   7.615  1.00  0.00    -0.246 OA
BRANCH  21  23
ATOM     23  O   UNL     1     -34.502 155.603   7.140  1.00  0.00    -0.465 OA
ATOM     24  C   UNL     1     -34.245 156.977   6.845  1.00  0.00    +0.282 C 
ENDBRANCH  21  23
ENDBRANCH  10  21
BRANCH   9  25
ATOM     25  C   UNL     1     -38.485 149.336   4.516  1.00  0.00    -0.001 A 
ATOM     26  C   UNL     1     -39.543 149.103   5.410  1.00  0.00    +0.010 A 
ATOM     27  C   UNL     1     -38.750 149.957   3.288  1.00  0.00    +0.010 A 
ATOM     28  C   UNL     1     -40.843 149.489   5.078  1.00  0.00    +0.001 A 
ATOM     29  C   UNL     1     -40.051 150.341   2.958  1.00  0.00    +0.001 A 
ATOM     30  C   UNL     1     -41.095 150.108   3.854  1.00  0.00    +0.000 A 
ENDBRANCH   9  25
ENDBRANCH   7   9
ENDBRANCH   1   7
BRANCH   4  31
ATOM     31  N   UNL     1     -37.744 143.621   0.627  1.00  0.00    -0.314 N 
ATOM     32  C   UNL     1     -38.989 142.868   0.783  1.00  0.00    +0.153 C 
BRANCH  31  33
ATOM     33  C   UNL     1     -36.913 143.413  -0.498  1.00  0.00    +0.240 C 
ATOM     34  O   UNL     1     -37.330 143.398  -1.658  1.00  0.00    -0.273 OA
BRANCH  33  35
ATOM     35  C   UNL     1     -35.413 143.189  -0.188  1.00  0.00    +0.185 C 
BRANCH  35  36
ATOM     36  N   UNL     1     -34.585 144.407  -0.118  1.00  0.00    -0.292 NA
ATOM     37  C   UNL     1     -34.218 144.962  -1.424  1.00  0.00    +0.100 C 
ATOM     38  C   UNL     1     -33.414 144.280   0.767  1.00  0.00    +0.100 C 
ATOM     39  C   UNL     1     -33.532 146.351  -1.305  1.00  0.00    +0.099 C 
ATOM     40  C   UNL     1     -32.267 145.277   0.450  1.00  0.00    +0.099 C 
ATOM     41  N   UNL     1     -32.694 146.576  -0.105  1.00  0.00    -0.304 NA
ATOM     42  C   UNL     1     -33.418 147.358   0.898  1.00  0.00    +0.105 C 
ENDBRANCH  35  36
ENDBRANCH  33  35
ENDBRANCH  31  33
ENDBRANCH   4  31
TORSDOF 9
ENDMDL
MODEL 7
REMARK VINA RESULT:    -7.786      4.252     10.450
REMARK INTER + INTRA:         -14.042
REMARK INTER:                 -12.037
REMARK INTRA:                  -2.005
REMARK UNBOUND:                -2.160
REMARK SMILES COC(=O)c1ccc2c(c1)NC(=O)/C2=C(\Nc1ccc(N(C)C(=O)CN2CCN(C)CC2)cc1)c1ccccc1
REMARK SMILES IDX 17 1 18 2 19 3 20 4 33 5 34 6 16 7 15 9 5 10 6 11 10 12 7 13
REMARK SMILES IDX 9 14 8 15 11 16 14 17 12 18 13 19 3 21 4 22 2 23 1 24 35 25
REMARK SMILES IDX 36 26 40 27 37 28 39 29 38 30 21 31 22 32 23 33 24 34 25 35
REMARK SMILES IDX 26 36 27 37 32 38 28 39 31 40 29 41 30 42
REMARK H PARENT 16 8 11 20
ROOT
ATOM      1  C   UNL     1     -38.035 147.762   2.048  1.00  0.00    +0.039 A 
ATOM      2  C   UNL     1     -38.927 148.790   2.333  1.00  0.00    +0.028 A 
ATOM      3  C   UNL     1     -38.738 149.647   3.434  1.00  0.00    +0.028 A 
ATOM      4  C   UNL     1     -37.655 149.500   4.313  1.00  0.00    +0.043 A 
ATOM      5  C   UNL     1     -36.753 148.473   4.017  1.00  0.00    +0.028 A 
ATOM      6  C   UNL     1     -36.945 147.621   2.917  1.00  0.00    +0.028 A 
ENDROOT
BRANCH   1   7
ATOM      7  N   UNL     1     -38.165 146.830   1.006  1.00  0.00    -0.354 N 
ATOM      8  H   UNL     1     -37.258 146.443   0.719  1.00  0.00    +0.167 HD
BRANCH   7   9
ATOM      9  C   UNL     1     -39.222 146.342   0.242  1.00  0.00    +0.059 C 
ATOM     10  C   UNL     1     -41.663 145.746  -4.538  1.00  0.00    +0.062 A 
ATOM     11  C   UNL     1     -42.060 145.079  -3.359  1.00  0.00    +0.016 A 
ATOM     12  C   UNL     1     -40.559 146.607  -4.514  1.00  0.00    +0.042 A 
ATOM     13  C   UNL     1     -41.371 145.269  -2.151  1.00  0.00    +0.012 A 
ATOM     14  C   UNL     1     -39.902 146.775  -3.310  1.00  0.00    +0.050 A 
ATOM     15  C   UNL     1     -40.293 146.137  -2.124  1.00  0.00    +0.013 A 
ATOM     16  N   UNL     1     -38.775 147.560  -3.101  1.00  0.00    -0.321 N 
ATOM     17  C   UNL     1     -39.338 146.581  -1.088  1.00  0.00    +0.073 C 
ATOM     18  C   UNL     1     -38.347 147.485  -1.790  1.00  0.00    +0.258 C 
ATOM     19  O   UNL     1     -37.372 148.031  -1.306  1.00  0.00    -0.269 OA
ATOM     20  H   UNL     1     -38.291 148.099  -3.803  1.00  0.00    +0.170 HD
BRANCH  10  21
ATOM     21  C   UNL     1     -42.372 145.563  -5.833  1.00  0.00    +0.337 C 
ATOM     22  O   UNL     1     -43.105 144.615  -6.068  1.00  0.00    -0.246 OA
BRANCH  21  23
ATOM     23  O   UNL     1     -42.087 146.578  -6.686  1.00  0.00    -0.465 OA
ATOM     24  C   UNL     1     -41.539 146.152  -7.934  1.00  0.00    +0.282 C 
ENDBRANCH  21  23
ENDBRANCH  10  21
BRANCH   9  25
ATOM     25  C   UNL     1     -40.219 145.463   0.886  1.00  0.00    -0.001 A 
ATOM     26  C   UNL     1     -39.981 144.085   1.008  1.00  0.00    +0.010 A 
ATOM     27  C   UNL     1     -41.411 146.000   1.392  1.00  0.00    +0.010 A 
ATOM     28  C   UNL     1     -40.922 143.260   1.628  1.00  0.00    +0.001 A 
ATOM     29  C   UNL     1     -42.349 145.173   2.011  1.00  0.00    +0.001 A 
ATOM     30  C   UNL     1     -42.103 143.805   2.130  1.00  0.00    +0.000 A 
ENDBRANCH   9  25
ENDBRANCH   7   9
ENDBRANCH   1   7
BRANCH   4  31
ATOM     31  N   UNL     1     -37.458 150.404   5.428  1.00  0.00    -0.314 N 
ATOM     32  C   UNL     1     -38.526 151.365   5.710  1.00  0.00    +0.153 C 
BRANCH  31  33
ATOM     33  C   UNL     1     -36.335 150.306   6.280  1.00  0.00    +0.240 C 
ATOM     34  O   UNL     1     -36.344 149.692   7.349  1.00  0.00    -0.273 OA
BRANCH  33  35
ATOM     35  C   UNL     1     -35.061 151.037   5.793  1.00  0.00    +0.185 C 
BRANCH  35  36
ATOM     36  N   UNL     1     -35.135 152.510   5.775  1.00  0.00    -0.292 NA
ATOM     37  C   UNL     1     -33.956 153.166   5.201  1.00  0.00    +0.100 C 
ATOM     38  C   UNL     1     -35.509 153.102   7.071  1.00  0.00    +0.100 C 
ATOM     39  C   UNL     1     -34.164 154.694   5.008  1.00  0.00    +0.099 C 
ATOM     40  C   UNL     1     -35.069 154.581   7.245  1.00  0.00    +0.099 C 
ATOM     41  N   UNL     1     -35.024 155.376   6.003  1.00  0.00    -0.304 NA
ATOM     42  C   UNL     1     -36.370 155.590   5.471  1.00  0.00    +0.105 C 
ENDBRANCH  35  36
ENDBRANCH  33  35
ENDBRANCH  31  33
ENDBRANCH   4  31
TORSDOF 9
ENDMDL
MODEL 8
REMARK VINA RESULT:    -7.722      4.068     10.375
REMARK INTER + INTRA:         -13.944
REMARK INTER:                 -11.971
REMARK INTRA:                  -1.973
REMARK UNBOUND:                -2.160
REMARK SMILES COC(=O)c1ccc2c(c1)NC(=O)/C2=C(\Nc1ccc(N(C)C(=O)CN2CCN(C)CC2)cc1)c1ccccc1
REMARK SMILES IDX 17 1 18 2 19 3 20 4 33 5 34 6 16 7 15 9 5 10 6 11 10 12 7 13
REMARK SMILES IDX 9 14 8 15 11 16 14 17 12 18 13 19 3 21 4 22 2 23 1 24 35 25
REMARK SMILES IDX 36 26 40 27 37 28 39 29 38 30 21 31 22 32 23 33 24 34 25 35
REMARK SMILES IDX 26 36 27 37 32 38 28 39 31 40 29 41 30 42
REMARK H PARENT 16 8 11 20
ROOT
ATOM      1  C   UNL     1     -37.542 146.934   2.380  1.00  0.00    +0.039 A 
ATOM      2  C   UNL     1     -36.310 147.105   3.000  1.00  0.00    +0.028 A 
ATOM      3  C   UNL     1     -36.157 147.948   4.117  1.00  0.00    +0.028 A 
ATOM      4  C   UNL     1     -37.230 148.676   4.652  1.00  0.00    +0.043 A 
ATOM      5  C   UNL     1     -38.470 148.492   4.034  1.00  0.00    +0.028 A 
ATOM      6  C   UNL     1     -38.619 147.649   2.920  1.00  0.00    +0.028 A 
ENDROOT
BRANCH   1   7
ATOM      7  N   UNL     1     -37.783 146.156   1.236  1.00  0.00    -0.354 N 
ATOM      8  H   UNL     1     -37.681 145.151   1.424  1.00  0.00    +0.167 HD
BRANCH   7   9
ATOM      9  C   UNL     1     -38.083 146.425  -0.097  1.00  0.00    +0.059 C 
ATOM     10  C   UNL     1     -41.569 146.347  -4.221  1.00  0.00    +0.062 A 
ATOM     11  C   UNL     1     -40.324 147.011  -4.251  1.00  0.00    +0.016 A 
ATOM     12  C   UNL     1     -41.973 145.674  -3.061  1.00  0.00    +0.042 A 
ATOM     13  C   UNL     1     -39.470 147.002  -3.137  1.00  0.00    +0.012 A 
ATOM     14  C   UNL     1     -41.111 145.683  -1.981  1.00  0.00    +0.050 A 
ATOM     15  C   UNL     1     -39.862 146.319  -1.998  1.00  0.00    +0.013 A 
ATOM     16  N   UNL     1     -41.352 145.099  -0.743  1.00  0.00    -0.321 N 
ATOM     17  C   UNL     1     -39.271 146.094  -0.663  1.00  0.00    +0.073 C 
ATOM     18  C   UNL     1     -40.303 145.318   0.127  1.00  0.00    +0.258 C 
ATOM     19  O   UNL     1     -40.230 144.962   1.290  1.00  0.00    -0.269 OA
ATOM     20  H   UNL     1     -42.189 144.604  -0.476  1.00  0.00    +0.170 HD
BRANCH  10  21
ATOM     21  C   UNL     1     -42.496 146.340  -5.385  1.00  0.00    +0.337 C 
ATOM     22  O   UNL     1     -43.455 147.088  -5.483  1.00  0.00    -0.246 OA
BRANCH  21  23
ATOM     23  O   UNL     1     -42.121 145.403  -6.292  1.00  0.00    -0.465 OA
ATOM     24  C   UNL     1     -41.578 145.946  -7.496  1.00  0.00    +0.282 C 
ENDBRANCH  21  23
ENDBRANCH  10  21
BRANCH   9  25
ATOM     25  C   UNL     1     -37.103 147.171  -0.910  1.00  0.00    -0.001 A 
ATOM     26  C   UNL     1     -37.011 148.569  -0.812  1.00  0.00    +0.010 A 
ATOM     27  C   UNL     1     -36.245 146.488  -1.784  1.00  0.00    +0.010 A 
ATOM     28  C   UNL     1     -36.074 149.269  -1.575  1.00  0.00    +0.001 A 
ATOM     29  C   UNL     1     -35.310 147.191  -2.546  1.00  0.00    +0.001 A 
ATOM     30  C   UNL     1     -35.224 148.579  -2.439  1.00  0.00    +0.000 A 
ENDBRANCH   9  25
ENDBRANCH   7   9
ENDBRANCH   1   7
BRANCH   4  31
ATOM     31  N   UNL     1     -37.064 149.520   5.818  1.00  0.00    -0.314 N 
ATOM     32  C   UNL     1     -36.944 148.856   7.116  1.00  0.00    +0.153 C 
BRANCH  31  33
ATOM     33  C   UNL     1     -36.918 150.921   5.710  1.00  0.00    +0.240 C 
ATOM     34  O   UNL     1     -37.848 151.684   5.440  1.00  0.00    -0.273 OA
BRANCH  33  35
ATOM     35  C   UNL     1     -35.487 151.464   5.946  1.00  0.00    +0.185 C 
BRANCH  35  36
ATOM     36  N   UNL     1     -35.343 152.931   5.901  1.00  0.00    -0.292 NA
ATOM     37  C   UNL     1     -34.091 153.394   5.294  1.00  0.00    +0.100 C 
ATOM     38  C   UNL     1     -35.599 153.593   7.192  1.00  0.00    +0.100 C 
ATOM     39  C   UNL     1     -34.074 154.932   5.075  1.00  0.00    +0.099 C 
ATOM     40  C   UNL     1     -34.942 154.992   7.329  1.00  0.00    +0.099 C 
ATOM     41  N   UNL     1     -34.803 155.751   6.071  1.00  0.00    -0.304 NA
ATOM     42  C   UNL     1     -36.113 156.154   5.558  1.00  0.00    +0.105 C 
ENDBRANCH  35  36
ENDBRANCH  33  35
ENDBRANCH  31  33
ENDBRANCH   4  31
TORSDOF 9
ENDMDL
MODEL 9
REMARK VINA RESULT:    -7.660      3.739     10.081
REMARK INTER + INTRA:         -13.850
REMARK INTER:                 -11.785
REMARK INTRA:                  -2.066
REMARK UNBOUND:                -2.160
REMARK SMILES COC(=O)c1ccc2c(c1)NC(=O)/C2=C(\Nc1ccc(N(C)C(=O)CN2CCN(C)CC2)cc1)c1ccccc1
REMARK SMILES IDX 17 1 18 2 19 3 20 4 33 5 34 6 16 7 15 9 5 10 6 11 10 12 7 13
REMARK SMILES IDX 9 14 8 15 11 16 14 17 12 18 13 19 3 21 4 22 2 23 1 24 35 25
REMARK SMILES IDX 36 26 40 27 37 28 39 29 38 30 21 31 22 32 23 33 24 34 25 35
REMARK SMILES IDX 26 36 27 37 32 38 28 39 31 40 29 41 30 42
REMARK H PARENT 16 8 11 20
ROOT
ATOM      1  C   UNL     1     -37.291 148.814   4.266  1.00  0.00    +0.039 A 
ATOM      2  C   UNL     1     -35.964 148.726   4.672  1.00  0.00    +0.028 A 
ATOM      3  C   UNL     1     -35.321 149.792   5.329  1.00  0.00    +0.028 A 
ATOM      4  C   UNL     1     -35.974 151.007   5.590  1.00  0.00    +0.043 A 
ATOM      5  C   UNL     1     -37.312 151.087   5.191  1.00  0.00    +0.028 A 
ATOM      6  C   UNL     1     -37.949 150.020   4.537  1.00  0.00    +0.028 A 
ENDROOT
BRANCH   1   7
ATOM      7  N   UNL     1     -38.000 147.826   3.565  1.00  0.00    -0.354 N 
ATOM      8  H   UNL     1     -38.604 147.271   4.183  1.00  0.00    +0.167 HD
BRANCH   7   9
ATOM      9  C   UNL     1     -38.046 147.393   2.241  1.00  0.00    +0.059 C 
ATOM     10  C   UNL     1     -40.819 145.391  -1.938  1.00  0.00    +0.062 A 
ATOM     11  C   UNL     1     -39.501 145.888  -2.029  1.00  0.00    +0.016 A 
ATOM     12  C   UNL     1     -41.492 145.421  -0.711  1.00  0.00    +0.042 A 
ATOM     13  C   UNL     1     -38.842 146.407  -0.903  1.00  0.00    +0.012 A 
ATOM     14  C   UNL     1     -40.817 145.938   0.379  1.00  0.00    +0.050 A 
ATOM     15  C   UNL     1     -39.502 146.418   0.313  1.00  0.00    +0.013 A 
ATOM     16  N   UNL     1     -41.331 146.077   1.663  1.00  0.00    -0.321 N 
ATOM     17  C   UNL     1     -39.166 146.876   1.677  1.00  0.00    +0.073 C 
ATOM     18  C   UNL     1     -40.411 146.659   2.511  1.00  0.00    +0.258 C 
ATOM     19  O   UNL     1     -40.573 146.942   3.685  1.00  0.00    -0.269 OA
ATOM     20  H   UNL     1     -42.263 145.827   1.957  1.00  0.00    +0.170 HD
BRANCH  10  21
ATOM     21  C   UNL     1     -41.543 144.835  -3.113  1.00  0.00    +0.337 C 
ATOM     22  O   UNL     1     -42.290 143.873  -3.045  1.00  0.00    -0.246 OA
BRANCH  21  23
ATOM     23  O   UNL     1     -41.252 145.540  -4.235  1.00  0.00    -0.465 OA
ATOM     24  C   UNL     1     -42.393 145.851  -5.036  1.00  0.00    +0.282 C 
ENDBRANCH  21  23
ENDBRANCH  10  21
BRANCH   9  25
ATOM     25  C   UNL     1     -36.852 147.575   1.392  1.00  0.00    -0.001 A 
ATOM     26  C   UNL     1     -35.883 146.563   1.297  1.00  0.00    +0.010 A 
ATOM     27  C   UNL     1     -36.680 148.759   0.662  1.00  0.00    +0.010 A 
ATOM     28  C   UNL     1     -34.762 146.735   0.483  1.00  0.00    +0.001 A 
ATOM     29  C   UNL     1     -35.557 148.929  -0.150  1.00  0.00    +0.001 A 
ATOM     30  C   UNL     1     -34.601 147.917  -0.241  1.00  0.00    +0.000 A 
ENDBRANCH   9  25
ENDBRANCH   7   9
ENDBRANCH   1   7
BRANCH   4  31
ATOM     31  N   UNL     1     -35.309 152.087   6.289  1.00  0.00    -0.314 N 
ATOM     32  C   UNL     1     -35.589 152.235   7.718  1.00  0.00    +0.153 C 
BRANCH  31  33
ATOM     33  C   UNL     1     -34.348 152.907   5.655  1.00  0.00    +0.240 C 
ATOM     34  O   UNL     1     -33.810 152.621   4.584  1.00  0.00    -0.273 OA
BRANCH  33  35
ATOM     35  C   UNL     1     -33.989 154.214   6.403  1.00  0.00    +0.185 C 
BRANCH  35  36
ATOM     36  N   UNL     1     -34.729 155.417   5.980  1.00  0.00    -0.292 NA
ATOM     37  C   UNL     1     -33.899 156.442   5.340  1.00  0.00    +0.100 C 
ATOM     38  C   UNL     1     -35.583 155.990   7.035  1.00  0.00    +0.100 C 
ATOM     39  C   UNL     1     -34.746 157.591   4.725  1.00  0.00    +0.099 C 
ATOM     40  C   UNL     1     -35.921 157.492   6.833  1.00  0.00    +0.099 C 
ATOM     41  N   UNL     1     -36.001 157.938   5.429  1.00  0.00    -0.304 NA
ATOM     42  C   UNL     1     -37.158 157.344   4.758  1.00  0.00    +0.105 C 
ENDBRANCH  35  36
ENDBRANCH  33  35
ENDBRANCH  31  33
ENDBRANCH   4  31
TORSDOF 9
ENDMDL
MODEL 10
REMARK VINA RESULT:    -7.621      2.699      4.415
REMARK INTER + INTRA:         -13.790
REMARK INTER:                 -11.603
REMARK INTRA:                  -2.187
REMARK UNBOUND:                -2.160
REMARK SMILES COC(=O)c1ccc2c(c1)NC(=O)/C2=C(\Nc1ccc(N(C)C(=O)CN2CCN(C)CC2)cc1)c1ccccc1
REMARK SMILES IDX 17 1 18 2 19 3 20 4 33 5 34 6 16 7 15 9 5 10 6 11 10 12 7 13
REMARK SMILES IDX 9 14 8 15 11 16 14 17 12 18 13 19 3 21 4 22 2 23 1 24 35 25
REMARK SMILES IDX 36 26 40 27 37 28 39 29 38 30 21 31 22 32 23 33 24 34 25 35
REMARK SMILES IDX 26 36 27 37 32 38 28 39 31 40 29 41 30 42
REMARK H PARENT 16 8 11 20
ROOT
ATOM      1  C   UNL     1     -38.799 148.116   3.884  1.00  0.00    +0.039 A 
ATOM      2  C   UNL     1     -37.834 147.385   3.201  1.00  0.00    +0.028 A 
ATOM      3  C   UNL     1     -38.167 146.572   2.100  1.00  0.00    +0.028 A 
ATOM      4  C   UNL     1     -39.488 146.439   1.647  1.00  0.00    +0.043 A 
ATOM      5  C   UNL     1     -40.454 147.185   2.329  1.00  0.00    +0.028 A 
ATOM      6  C   UNL     1     -40.117 147.996   3.426  1.00  0.00    +0.028 A 
ENDROOT
BRANCH   1   7
ATOM      7  N   UNL     1     -38.572 148.914   5.018  1.00  0.00    -0.354 N 
ATOM      8  H   UNL     1     -39.409 148.996   5.606  1.00  0.00    +0.167 HD
BRANCH   7   9
ATOM      9  C   UNL     1     -37.497 149.652   5.508  1.00  0.00    +0.059 C 
ATOM     10  C   UNL     1     -35.015 154.394   6.227  1.00  0.00    +0.062 A 
ATOM     11  C   UNL     1     -34.608 153.188   6.836  1.00  0.00    +0.016 A 
ATOM     12  C   UNL     1     -36.141 154.409   5.395  1.00  0.00    +0.042 A 
ATOM     13  C   UNL     1     -35.307 151.991   6.616  1.00  0.00    +0.012 A 
ATOM     14  C   UNL     1     -36.809 153.215   5.197  1.00  0.00    +0.050 A 
ATOM     15  C   UNL     1     -36.409 152.004   5.777  1.00  0.00    +0.013 A 
ATOM     16  N   UNL     1     -37.958 153.043   4.434  1.00  0.00    -0.321 N 
ATOM     17  C   UNL     1     -37.381 150.991   5.319  1.00  0.00    +0.073 C 
ATOM     18  C   UNL     1     -38.391 151.733   4.470  1.00  0.00    +0.258 C 
ATOM     19  O   UNL     1     -39.383 151.275   3.931  1.00  0.00    -0.269 OA
ATOM     20  H   UNL     1     -38.452 153.768   3.937  1.00  0.00    +0.170 HD
BRANCH  10  21
ATOM     21  C   UNL     1     -34.294 155.678   6.442  1.00  0.00    +0.337 C 
ATOM     22  O   UNL     1     -34.577 156.464   7.332  1.00  0.00    -0.246 OA
BRANCH  21  23
ATOM     23  O   UNL     1     -33.307 155.834   5.526  1.00  0.00    -0.465 OA
ATOM     24  C   UNL     1     -33.390 157.053   4.785  1.00  0.00    +0.282 C 
ENDBRANCH  21  23
ENDBRANCH  10  21
BRANCH   9  25
ATOM     25  C   UNL     1     -36.482 148.970   6.334  1.00  0.00    -0.001 A 
ATOM     26  C   UNL     1     -36.696 148.770   7.707  1.00  0.00    +0.010 A 
ATOM     27  C   UNL     1     -35.295 148.504   5.751  1.00  0.00    +0.010 A 
ATOM     28  C   UNL     1     -35.737 148.113   8.481  1.00  0.00    +0.001 A 
ATOM     29  C   UNL     1     -34.338 147.848   6.527  1.00  0.00    +0.001 A 
ATOM     30  C   UNL     1     -34.561 147.652   7.891  1.00  0.00    +0.000 A 
ENDBRANCH   9  25
ENDBRANCH   7   9
ENDBRANCH   1   7
BRANCH   4  31
ATOM     31  N   UNL     1     -39.814 145.619   0.498  1.00  0.00    -0.314 N 
ATOM     32  C   UNL     1     -40.399 144.303   0.757  1.00  0.00    +0.153 C 
BRANCH  31  33
ATOM     33  C   UNL     1     -39.676 146.098  -0.824  1.00  0.00    +0.240 C 
ATOM     34  O   UNL     1     -40.569 146.697  -1.428  1.00  0.00    -0.273 OA
BRANCH  33  35
ATOM     35  C   UNL     1     -38.311 145.815  -1.498  1.00  0.00    +0.185 C 
BRANCH  35  36
ATOM     36  N   UNL     1     -37.233 146.772  -1.187  1.00  0.00    -0.292 NA
ATOM     37  C   UNL     1     -37.154 147.910  -2.109  1.00  0.00    +0.100 C 
ATOM     38  C   UNL     1     -35.917 146.141  -0.989  1.00  0.00    +0.100 C 
ATOM     39  C   UNL     1     -36.151 148.994  -1.625  1.00  0.00    +0.099 C 
ATOM     40  C   UNL     1     -34.715 147.097  -1.212  1.00  0.00    +0.099 C 
ATOM     41  N   UNL     1     -34.963 148.513  -0.883  1.00  0.00    -0.304 NA
ATOM     42  C   UNL     1     -35.142 148.690   0.559  1.00  0.00    +0.105 C 
ENDBRANCH  35  36
ENDBRANCH  33  35
ENDBRANCH  31  33
ENDBRANCH   4  31
TORSDOF 9
ENDMDL
