MODEL 1
REMARK VINA RESULT:    -8.757      0.000      0.000
REMARK INTER + INTRA:         -10.581
REMARK INTER:                  -9.781
REMARK INTRA:                  -0.800
REMARK UNBOUND:                -0.800
REMARK SMILES CN(C)c1ccc(/C=C2\C(=O)Nc3ccccc32)c2ccccc12
REMARK SMILES IDX 4 1 5 2 6 3 7 4 19 5 20 6 21 7 22 8 23 9 24 10 2 11 1 12
REMARK SMILES IDX 3 13 8 14 9 15 10 16 18 17 11 18 12 19 17 20 13 21 16 22
REMARK SMILES IDX 14 23 15 24
REMARK H PARENT 12 25
ROOT
ATOM      1  C   UNL     1      -9.855   4.920 -16.671  1.00  0.00    +0.044 A 
ATOM      2  C   UNL     1      -8.805   4.478 -17.490  1.00  0.00    +0.027 A 
ATOM      3  C   UNL     1      -8.223   3.229 -17.297  1.00  0.00    +0.011 A 
ATOM      4  C   UNL     1      -8.686   2.378 -16.287  1.00  0.00    -0.017 A 
ATOM      5  C   UNL     1      -9.748   2.785 -15.439  1.00  0.00    -0.009 A 
ATOM      6  C   UNL     1     -10.258   1.964 -14.402  1.00  0.00    +0.009 A 
ATOM      7  C   UNL     1     -11.297   2.384 -13.570  1.00  0.00    +0.001 A 
ATOM      8  C   UNL     1     -11.856   3.638 -13.750  1.00  0.00    +0.001 A 
ATOM      9  C   UNL     1     -11.378   4.465 -14.767  1.00  0.00    +0.011 A 
ATOM     10  C   UNL     1     -10.333   4.067 -15.632  1.00  0.00    +0.006 A 
ENDROOT
BRANCH   1  11
ATOM     11  N   UNL     1     -10.476   6.181 -16.891  1.00  0.00    -0.377 N 
ATOM     12  C   UNL     1     -11.135   6.201 -18.202  1.00  0.00    +0.143 C 
ATOM     13  C   UNL     1      -9.620   7.338 -16.629  1.00  0.00    +0.143 C 
ENDBRANCH   1  11
BRANCH   4  14
ATOM     14  C   UNL     1      -8.005   1.084 -16.116  1.00  0.00    +0.023 C 
ATOM     15  C   UNL     1      -6.938   0.855 -15.336  1.00  0.00    +0.050 C 
ATOM     16  C   UNL     1      -6.196   1.843 -14.468  1.00  0.00    +0.256 C 
ATOM     17  C   UNL     1      -6.258  -0.438 -15.190  1.00  0.00    +0.011 A 
ATOM     18  O   UNL     1      -6.425   3.022 -14.284  1.00  0.00    -0.269 OA
ATOM     19  N   UNL     1      -5.168   1.108 -13.893  1.00  0.00    -0.321 N 
ATOM     20  C   UNL     1      -6.477  -1.694 -15.726  1.00  0.00    +0.011 A 
ATOM     21  C   UNL     1      -5.196  -0.220 -14.307  1.00  0.00    +0.049 A 
ATOM     22  C   UNL     1      -5.607  -2.727 -15.360  1.00  0.00    +0.001 A 
ATOM     23  C   UNL     1      -4.326  -1.223 -13.931  1.00  0.00    +0.027 A 
ATOM     24  C   UNL     1      -4.541  -2.493 -14.470  1.00  0.00    +0.002 A 
ATOM     25  H   UNL     1      -4.501   1.517 -13.258  1.00  0.00    +0.170 HD
ENDBRANCH   4  14
TORSDOF 2
ENDMDL
MODEL 2
REMARK VINA RESULT:    -8.649      3.339      6.012
REMARK INTER + INTRA:         -10.460
REMARK INTER:                 -11.658
REMARK INTRA:                   1.198
REMARK UNBOUND:                -0.800
REMARK SMILES CN(C)c1ccc(/C=C2\C(=O)Nc3ccccc32)c2ccccc12
REMARK SMILES IDX 4 1 5 2 6 3 7 4 19 5 20 6 21 7 22 8 23 9 24 10 2 11 1 12
REMARK SMILES IDX 3 13 8 14 9 15 10 16 18 17 11 18 12 19 17 20 13 21 16 22
REMARK SMILES IDX 14 23 15 24
REMARK H PARENT 12 25
ROOT
ATOM      1  C   UNL     1      -9.951   5.422 -17.126  1.00  0.00    +0.044 A 
ATOM      2  C   UNL     1     -10.969   5.703 -16.202  1.00  0.00    +0.027 A 
ATOM      3  C   UNL     1     -11.213   4.855 -15.126  1.00  0.00    +0.011 A 
ATOM      4  C   UNL     1     -10.435   3.708 -14.936  1.00  0.00    -0.017 A 
ATOM      5  C   UNL     1      -9.394   3.389 -15.846  1.00  0.00    -0.009 A 
ATOM      6  C   UNL     1      -8.575   2.241 -15.701  1.00  0.00    +0.009 A 
ATOM      7  C   UNL     1      -7.561   1.937 -16.611  1.00  0.00    +0.001 A 
ATOM      8  C   UNL     1      -7.338   2.771 -17.692  1.00  0.00    +0.001 A 
ATOM      9  C   UNL     1      -8.125   3.911 -17.858  1.00  0.00    +0.011 A 
ATOM     10  C   UNL     1      -9.155   4.253 -16.950  1.00  0.00    +0.006 A 
ENDROOT
BRANCH   1  11
ATOM     11  N   UNL     1      -9.675   6.308 -18.205  1.00  0.00    -0.377 N 
ATOM     12  C   UNL     1      -9.281   7.626 -17.692  1.00  0.00    +0.143 C 
ATOM     13  C   UNL     1     -10.706   6.350 -19.241  1.00  0.00    +0.143 C 
ENDBRANCH   1  11
BRANCH   4  14
ATOM     14  C   UNL     1     -10.768   2.835 -13.797  1.00  0.00    +0.023 C 
ATOM     15  C   UNL     1     -11.978   2.705 -13.234  1.00  0.00    +0.050 C 
ATOM     16  C   UNL     1     -13.260   3.402 -13.623  1.00  0.00    +0.256 C 
ATOM     17  C   UNL     1     -12.290   1.845 -12.087  1.00  0.00    +0.011 A 
ATOM     18  O   UNL     1     -13.458   4.192 -14.524  1.00  0.00    -0.269 OA
ATOM     19  N   UNL     1     -14.205   2.936 -12.718  1.00  0.00    -0.321 N 
ATOM     20  C   UNL     1     -11.536   0.980 -11.314  1.00  0.00    +0.011 A 
ATOM     21  C   UNL     1     -13.650   2.029 -11.821  1.00  0.00    +0.049 A 
ATOM     22  C   UNL     1     -12.176   0.304 -10.268  1.00  0.00    +0.001 A 
ATOM     23  C   UNL     1     -14.302   1.375 -10.796  1.00  0.00    +0.027 A 
ATOM     24  C   UNL     1     -13.546   0.501 -10.012  1.00  0.00    +0.002 A 
ATOM     25  H   UNL     1     -15.166   3.238 -12.739  1.00  0.00    +0.170 HD
ENDBRANCH   4  14
TORSDOF 2
ENDMDL
MODEL 3
REMARK VINA RESULT:    -8.406      1.552      1.987
REMARK INTER + INTRA:         -10.189
REMARK INTER:                  -9.392
REMARK INTRA:                  -0.796
REMARK UNBOUND:                -0.800
REMARK SMILES CN(C)c1ccc(/C=C2\C(=O)Nc3ccccc32)c2ccccc12
REMARK SMILES IDX 4 1 5 2 6 3 7 4 19 5 20 6 21 7 22 8 23 9 24 10 2 11 1 12
REMARK SMILES IDX 3 13 8 14 9 15 10 16 18 17 11 18 12 19 17 20 13 21 16 22
REMARK SMILES IDX 14 23 15 24
REMARK H PARENT 12 25
ROOT
ATOM      1  C   UNL     1      -9.302   5.462 -17.305  1.00  0.00    +0.044 A 
ATOM      2  C   UNL     1      -7.996   5.104 -17.673  1.00  0.00    +0.027 A 
ATOM      3  C   UNL     1      -7.290   4.142 -16.957  1.00  0.00    +0.011 A 
ATOM      4  C   UNL     1      -7.876   3.499 -15.861  1.00  0.00    -0.017 A 
ATOM      5  C   UNL     1      -9.196   3.830 -15.458  1.00  0.00    -0.009 A 
ATOM      6  C   UNL     1      -9.839   3.210 -14.358  1.00  0.00    +0.009 A 
ATOM      7  C   UNL     1     -11.135   3.555 -13.969  1.00  0.00    +0.001 A 
ATOM      8  C   UNL     1     -11.824   4.530 -14.670  1.00  0.00    +0.001 A 
ATOM      9  C   UNL     1     -11.218   5.153 -15.761  1.00  0.00    +0.011 A 
ATOM     10  C   UNL     1      -9.910   4.822 -16.186  1.00  0.00    +0.006 A 
ENDROOT
BRANCH   1  11
ATOM     11  N   UNL     1     -10.040   6.418 -18.059  1.00  0.00    -0.377 N 
ATOM     12  C   UNL     1     -10.135   5.995 -19.461  1.00  0.00    +0.143 C 
ATOM     13  C   UNL     1      -9.610   7.804 -17.876  1.00  0.00    +0.143 C 
ENDBRANCH   1  11
BRANCH   4  14
ATOM     14  C   UNL     1      -7.062   2.515 -15.128  1.00  0.00    +0.023 C 
ATOM     15  C   UNL     1      -7.031   1.194 -15.357  1.00  0.00    +0.050 C 
ATOM     16  C   UNL     1      -7.802   0.416 -16.397  1.00  0.00    +0.256 C 
ATOM     17  C   UNL     1      -6.229   0.223 -14.604  1.00  0.00    +0.011 A 
ATOM     18  O   UNL     1      -8.577   0.825 -17.238  1.00  0.00    -0.269 OA
ATOM     19  N   UNL     1      -7.429  -0.906 -16.199  1.00  0.00    -0.321 N 
ATOM     20  C   UNL     1      -5.338   0.337 -13.552  1.00  0.00    +0.011 A 
ATOM     21  C   UNL     1      -6.513  -1.029 -15.158  1.00  0.00    +0.049 A 
ATOM     22  C   UNL     1      -4.739  -0.832 -13.067  1.00  0.00    +0.001 A 
ATOM     23  C   UNL     1      -5.936  -2.194 -14.697  1.00  0.00    +0.027 A 
ATOM     24  C   UNL     1      -5.036  -2.085 -13.635  1.00  0.00    +0.002 A 
ATOM     25  H   UNL     1      -7.795  -1.660 -16.758  1.00  0.00    +0.170 HD
ENDBRANCH   4  14
TORSDOF 2
ENDMDL
MODEL 4
REMARK VINA RESULT:    -8.092      1.896      3.390
REMARK INTER + INTRA:          -9.838
REMARK INTER:                  -9.679
REMARK INTRA:                  -0.159
REMARK UNBOUND:                -0.800
REMARK SMILES CN(C)c1ccc(/C=C2\C(=O)Nc3ccccc32)c2ccccc12
REMARK SMILES IDX 4 1 5 2 6 3 7 4 19 5 20 6 21 7 22 8 23 9 24 10 2 11 1 12
REMARK SMILES IDX 3 13 8 14 9 15 10 16 18 17 11 18 12 19 17 20 13 21 16 22
REMARK SMILES IDX 14 23 15 24
REMARK H PARENT 12 25
ROOT
ATOM      1  C   UNL     1     -11.511   2.443 -13.927  1.00  0.00    +0.044 A 
ATOM      2  C   UNL     1     -11.087   1.138 -13.633  1.00  0.00    +0.027 A 
ATOM      3  C   UNL     1      -9.987   0.581 -14.278  1.00  0.00    +0.011 A 
ATOM      4  C   UNL     1      -9.269   1.320 -15.224  1.00  0.00    -0.017 A 
ATOM      5  C   UNL     1      -9.663   2.644 -15.548  1.00  0.00    -0.009 A 
ATOM      6  C   UNL     1      -8.972   3.439 -16.498  1.00  0.00    +0.009 A 
ATOM      7  C   UNL     1      -9.379   4.736 -16.812  1.00  0.00    +0.001 A 
ATOM      8  C   UNL     1     -10.489   5.277 -16.185  1.00  0.00    +0.001 A 
ATOM      9  C   UNL     1     -11.185   4.520 -15.242  1.00  0.00    +0.011 A 
ATOM     10  C   UNL     1     -10.795   3.206 -14.895  1.00  0.00    +0.006 A 
ENDROOT
BRANCH   1  11
ATOM     11  N   UNL     1     -12.613   3.028 -13.242  1.00  0.00    -0.377 N 
ATOM     12  C   UNL     1     -12.955   2.232 -12.057  1.00  0.00    +0.143 C 
ATOM     13  C   UNL     1     -13.755   3.360 -14.093  1.00  0.00    +0.143 C 
ENDBRANCH   1  11
BRANCH   4  14
ATOM     14  C   UNL     1      -8.135   0.660 -15.893  1.00  0.00    +0.023 C 
ATOM     15  C   UNL     1      -6.837   0.858 -15.619  1.00  0.00    +0.050 C 
ATOM     16  C   UNL     1      -6.240   1.781 -14.583  1.00  0.00    +0.256 C 
ATOM     17  C   UNL     1      -5.717   0.207 -16.308  1.00  0.00    +0.011 A 
ATOM     18  O   UNL     1      -6.805   2.503 -13.786  1.00  0.00    -0.269 OA
ATOM     19  N   UNL     1      -4.867   1.629 -14.723  1.00  0.00    -0.321 N 
ATOM     20  C   UNL     1      -5.640  -0.724 -17.328  1.00  0.00    +0.011 A 
ATOM     21  C   UNL     1      -4.553   0.714 -15.723  1.00  0.00    +0.049 A 
ATOM     22  C   UNL     1      -4.370  -1.133 -17.751  1.00  0.00    +0.001 A 
ATOM     23  C   UNL     1      -3.291   0.326 -16.122  1.00  0.00    +0.027 A 
ATOM     24  C   UNL     1      -3.206  -0.613 -17.153  1.00  0.00    +0.002 A 
ATOM     25  H   UNL     1      -4.208   2.134 -14.152  1.00  0.00    +0.170 HD
ENDBRANCH   4  14
TORSDOF 2
ENDMDL
MODEL 5
REMARK VINA RESULT:    -8.010      3.286      5.533
REMARK INTER + INTRA:          -9.747
REMARK INTER:                  -9.071
REMARK INTRA:                  -0.675
REMARK UNBOUND:                -0.800
REMARK SMILES CN(C)c1ccc(/C=C2\C(=O)Nc3ccccc32)c2ccccc12
REMARK SMILES IDX 4 1 5 2 6 3 7 4 19 5 20 6 21 7 22 8 23 9 24 10 2 11 1 12
REMARK SMILES IDX 3 13 8 14 9 15 10 16 18 17 11 18 12 19 17 20 13 21 16 22
REMARK SMILES IDX 14 23 15 24
REMARK H PARENT 12 25
ROOT
ATOM      1  C   UNL     1     -12.159   0.460 -11.012  1.00  0.00    +0.044 A 
ATOM      2  C   UNL     1     -11.094  -0.429 -11.221  1.00  0.00    +0.027 A 
ATOM      3  C   UNL     1     -10.319  -0.358 -12.375  1.00  0.00    +0.011 A 
ATOM      4  C   UNL     1     -10.578   0.615 -13.346  1.00  0.00    -0.017 A 
ATOM      5  C   UNL     1     -11.644   1.536 -13.171  1.00  0.00    -0.009 A 
ATOM      6  C   UNL     1     -11.950   2.542 -14.121  1.00  0.00    +0.009 A 
ATOM      7  C   UNL     1     -13.009   3.434 -13.938  1.00  0.00    +0.001 A 
ATOM      8  C   UNL     1     -13.792   3.343 -12.800  1.00  0.00    +0.001 A 
ATOM      9  C   UNL     1     -13.510   2.366 -11.845  1.00  0.00    +0.011 A 
ATOM     10  C   UNL     1     -12.441   1.453 -11.996  1.00  0.00    +0.006 A 
ENDROOT
BRANCH   1  11
ATOM     11  N   UNL     1     -12.929   0.414  -9.815  1.00  0.00    -0.377 N 
ATOM     12  C   UNL     1     -12.046   0.328  -8.646  1.00  0.00    +0.143 C 
ATOM     13  C   UNL     1     -14.013  -0.569  -9.824  1.00  0.00    +0.143 C 
ENDBRANCH   1  11
BRANCH   4  14
ATOM     14  C   UNL     1      -9.742   0.614 -14.558  1.00  0.00    +0.023 C 
ATOM     15  C   UNL     1      -8.710   1.436 -14.800  1.00  0.00    +0.050 C 
ATOM     16  C   UNL     1      -8.169   2.531 -13.912  1.00  0.00    +0.256 C 
ATOM     17  C   UNL     1      -7.897   1.435 -16.022  1.00  0.00    +0.011 A 
ATOM     18  O   UNL     1      -8.538   2.870 -12.806  1.00  0.00    -0.269 OA
ATOM     19  N   UNL     1      -7.122   3.088 -14.635  1.00  0.00    -0.321 N 
ATOM     20  C   UNL     1      -7.913   0.672 -17.176  1.00  0.00    +0.011 A 
ATOM     21  C   UNL     1      -6.955   2.457 -15.863  1.00  0.00    +0.049 A 
ATOM     22  C   UNL     1      -6.966   0.955 -18.166  1.00  0.00    +0.001 A 
ATOM     23  C   UNL     1      -6.013   2.755 -16.825  1.00  0.00    +0.027 A 
ATOM     24  C   UNL     1      -6.025   1.987 -17.993  1.00  0.00    +0.002 A 
ATOM     25  H   UNL     1      -6.570   3.853 -14.282  1.00  0.00    +0.170 HD
ENDBRANCH   4  14
TORSDOF 2
ENDMDL
MODEL 6
REMARK VINA RESULT:    -7.685      2.356      2.747
REMARK INTER + INTRA:          -9.383
REMARK INTER:                  -8.704
REMARK INTRA:                  -0.679
REMARK UNBOUND:                -0.800
REMARK SMILES CN(C)c1ccc(/C=C2\C(=O)Nc3ccccc32)c2ccccc12
REMARK SMILES IDX 4 1 5 2 6 3 7 4 19 5 20 6 21 7 22 8 23 9 24 10 2 11 1 12
REMARK SMILES IDX 3 13 8 14 9 15 10 16 18 17 11 18 12 19 17 20 13 21 16 22
REMARK SMILES IDX 14 23 15 24
REMARK H PARENT 12 25
ROOT
ATOM      1  C   UNL     1      -9.077   5.121 -16.946  1.00  0.00    +0.044 A 
ATOM      2  C   UNL     1      -7.972   5.249 -17.801  1.00  0.00    +0.027 A 
ATOM      3  C   UNL     1      -6.862   4.421 -17.665  1.00  0.00    +0.011 A 
ATOM      4  C   UNL     1      -6.833   3.429 -16.679  1.00  0.00    -0.017 A 
ATOM      5  C   UNL     1      -7.931   3.264 -15.796  1.00  0.00    -0.009 A 
ATOM      6  C   UNL     1      -7.956   2.276 -14.780  1.00  0.00    +0.009 A 
ATOM      7  C   UNL     1      -9.040   2.134 -13.913  1.00  0.00    +0.001 A 
ATOM      8  C   UNL     1     -10.132   2.977 -14.037  1.00  0.00    +0.001 A 
ATOM      9  C   UNL     1     -10.138   3.955 -15.031  1.00  0.00    +0.011 A 
ATOM     10  C   UNL     1      -9.059   4.120 -15.931  1.00  0.00    +0.006 A 
ENDROOT
BRANCH   1  11
ATOM     11  N   UNL     1     -10.229   5.942 -17.108  1.00  0.00    -0.377 N 
ATOM     12  C   UNL     1     -10.815   5.739 -18.438  1.00  0.00    +0.143 C 
ATOM     13  C   UNL     1     -10.034   7.345 -16.744  1.00  0.00    +0.143 C 
ENDBRANCH   1  11
BRANCH   4  14
ATOM     14  C   UNL     1      -5.615   2.609 -16.568  1.00  0.00    +0.023 C 
ATOM     15  C   UNL     1      -5.472   1.351 -17.011  1.00  0.00    +0.050 C 
ATOM     16  C   UNL     1      -6.498   0.495 -17.714  1.00  0.00    +0.256 C 
ATOM     17  C   UNL     1      -4.257   0.539 -16.876  1.00  0.00    +0.011 A 
ATOM     18  O   UNL     1      -7.635   0.774 -18.037  1.00  0.00    -0.269 OA
ATOM     19  N   UNL     1      -5.857  -0.717 -17.935  1.00  0.00    -0.321 N 
ATOM     20  C   UNL     1      -3.009   0.778 -16.330  1.00  0.00    +0.011 A 
ATOM     21  C   UNL     1      -4.552  -0.701 -17.452  1.00  0.00    +0.049 A 
ATOM     22  C   UNL     1      -2.063  -0.253 -16.374  1.00  0.00    +0.001 A 
ATOM     23  C   UNL     1      -3.637  -1.731 -17.506  1.00  0.00    +0.027 A 
ATOM     24  C   UNL     1      -2.375  -1.496 -16.956  1.00  0.00    +0.002 A 
ATOM     25  H   UNL     1      -6.310  -1.491 -18.394  1.00  0.00    +0.170 HD
ENDBRANCH   4  14
TORSDOF 2
ENDMDL
MODEL 7
REMARK VINA RESULT:    -7.602      6.479      9.861
REMARK INTER + INTRA:          -9.290
REMARK INTER:                  -8.629
REMARK INTRA:                  -0.661
REMARK UNBOUND:                -0.800
REMARK SMILES CN(C)c1ccc(/C=C2\C(=O)Nc3ccccc32)c2ccccc12
REMARK SMILES IDX 4 1 5 2 6 3 7 4 19 5 20 6 21 7 22 8 23 9 24 10 2 11 1 12
REMARK SMILES IDX 3 13 8 14 9 15 10 16 18 17 11 18 12 19 17 20 13 21 16 22
REMARK SMILES IDX 14 23 15 24
REMARK H PARENT 12 25
ROOT
ATOM      1  C   UNL     1     -13.313  -2.112  -7.365  1.00  0.00    +0.044 A 
ATOM      2  C   UNL     1     -13.010  -0.751  -7.208  1.00  0.00    +0.027 A 
ATOM      3  C   UNL     1     -12.492  -0.007  -8.263  1.00  0.00    +0.011 A 
ATOM      4  C   UNL     1     -12.276  -0.600  -9.512  1.00  0.00    -0.017 A 
ATOM      5  C   UNL     1     -12.573  -1.973  -9.714  1.00  0.00    -0.009 A 
ATOM      6  C   UNL     1     -12.375  -2.625 -10.957  1.00  0.00    +0.009 A 
ATOM      7  C   UNL     1     -12.663  -3.979 -11.136  1.00  0.00    +0.001 A 
ATOM      8  C   UNL     1     -13.155  -4.721 -10.075  1.00  0.00    +0.001 A 
ATOM      9  C   UNL     1     -13.365  -4.104  -8.841  1.00  0.00    +0.011 A 
ATOM     10  C   UNL     1     -13.092  -2.733  -8.629  1.00  0.00    +0.006 A 
ENDROOT
BRANCH   1  11
ATOM     11  N   UNL     1     -13.879  -2.865  -6.298  1.00  0.00    -0.377 N 
ATOM     12  C   UNL     1     -15.246  -2.409  -6.023  1.00  0.00    +0.143 C 
ATOM     13  C   UNL     1     -13.031  -2.976  -5.111  1.00  0.00    +0.143 C 
ENDBRANCH   1  11
BRANCH   4  14
ATOM     14  C   UNL     1     -11.695   0.235 -10.576  1.00  0.00    +0.023 C 
ATOM     15  C   UNL     1     -12.355   1.140 -11.314  1.00  0.00    +0.050 C 
ATOM     16  C   UNL     1     -13.816   1.513 -11.232  1.00  0.00    +0.256 C 
ATOM     17  C   UNL     1     -11.766   1.952 -12.385  1.00  0.00    +0.011 A 
ATOM     18  O   UNL     1     -14.672   1.093 -10.479  1.00  0.00    -0.269 OA
ATOM     19  N   UNL     1     -13.992   2.474 -12.219  1.00  0.00    -0.321 N 
ATOM     20  C   UNL     1     -10.490   2.052 -12.911  1.00  0.00    +0.011 A 
ATOM     21  C   UNL     1     -12.805   2.736 -12.895  1.00  0.00    +0.049 A 
ATOM     22  C   UNL     1     -10.280   2.954 -13.960  1.00  0.00    +0.001 A 
ATOM     23  C   UNL     1     -12.621   3.632 -13.928  1.00  0.00    +0.027 A 
ATOM     24  C   UNL     1     -11.336   3.737 -14.463  1.00  0.00    +0.002 A 
ATOM     25  H   UNL     1     -14.884   2.908 -12.397  1.00  0.00    +0.170 HD
ENDBRANCH   4  14
TORSDOF 2
ENDMDL
MODEL 8
REMARK VINA RESULT:    -7.596      6.493      9.789
REMARK INTER + INTRA:          -9.284
REMARK INTER:                  -8.518
REMARK INTRA:                  -0.767
REMARK UNBOUND:                -0.800
REMARK SMILES CN(C)c1ccc(/C=C2\C(=O)Nc3ccccc32)c2ccccc12
REMARK SMILES IDX 4 1 5 2 6 3 7 4 19 5 20 6 21 7 22 8 23 9 24 10 2 11 1 12
REMARK SMILES IDX 3 13 8 14 9 15 10 16 18 17 11 18 12 19 17 20 13 21 16 22
REMARK SMILES IDX 14 23 15 24
REMARK H PARENT 12 25
ROOT
ATOM      1  C   UNL     1     -13.829  -2.281  -7.790  1.00  0.00    +0.044 A 
ATOM      2  C   UNL     1     -13.866  -2.569  -9.162  1.00  0.00    +0.027 A 
ATOM      3  C   UNL     1     -13.179  -1.778 -10.078  1.00  0.00    +0.011 A 
ATOM      4  C   UNL     1     -12.421  -0.685  -9.644  1.00  0.00    -0.017 A 
ATOM      5  C   UNL     1     -12.355  -0.361  -8.264  1.00  0.00    -0.009 A 
ATOM      6  C   UNL     1     -11.603   0.734  -7.769  1.00  0.00    +0.009 A 
ATOM      7  C   UNL     1     -11.556   1.044  -6.409  1.00  0.00    +0.001 A 
ATOM      8  C   UNL     1     -12.262   0.268  -5.505  1.00  0.00    +0.001 A 
ATOM      9  C   UNL     1     -13.007  -0.819  -5.963  1.00  0.00    +0.011 A 
ATOM     10  C   UNL     1     -13.068  -1.165  -7.333  1.00  0.00    +0.006 A 
ENDROOT
BRANCH   1  11
ATOM     11  N   UNL     1     -14.501  -3.111  -6.848  1.00  0.00    -0.377 N 
ATOM     12  C   UNL     1     -13.941  -4.467  -6.876  1.00  0.00    +0.143 C 
ATOM     13  C   UNL     1     -15.961  -3.061  -6.922  1.00  0.00    +0.143 C 
ENDBRANCH   1  11
BRANCH   4  14
ATOM     14  C   UNL     1     -11.745   0.130 -10.668  1.00  0.00    +0.023 C 
ATOM     15  C   UNL     1     -12.300   1.131 -11.367  1.00  0.00    +0.050 C 
ATOM     16  C   UNL     1     -13.714   1.652 -11.277  1.00  0.00    +0.256 C 
ATOM     17  C   UNL     1     -11.618   1.923 -12.398  1.00  0.00    +0.011 A 
ATOM     18  O   UNL     1     -14.616   1.292 -10.548  1.00  0.00    -0.269 OA
ATOM     19  N   UNL     1     -13.779   2.668 -12.221  1.00  0.00    -0.321 N 
ATOM     20  C   UNL     1     -10.333   1.910 -12.913  1.00  0.00    +0.011 A 
ATOM     21  C   UNL     1     -12.564   2.833 -12.878  1.00  0.00    +0.049 A 
ATOM     22  C   UNL     1     -10.019   2.831 -13.919  1.00  0.00    +0.001 A 
ATOM     23  C   UNL     1     -12.277   3.749 -13.869  1.00  0.00    +0.027 A 
ATOM     24  C   UNL     1     -10.982   3.741 -14.393  1.00  0.00    +0.002 A 
ATOM     25  H   UNL     1     -14.618   3.201 -12.384  1.00  0.00    +0.170 HD
ENDBRANCH   4  14
TORSDOF 2
ENDMDL
MODEL 9
REMARK VINA RESULT:    -7.562      2.982      5.897
REMARK INTER + INTRA:          -9.246
REMARK INTER:                 -10.784
REMARK INTRA:                   1.538
REMARK UNBOUND:                -0.800
REMARK SMILES CN(C)c1ccc(/C=C2\C(=O)Nc3ccccc32)c2ccccc12
REMARK SMILES IDX 4 1 5 2 6 3 7 4 19 5 20 6 21 7 22 8 23 9 24 10 2 11 1 12
REMARK SMILES IDX 3 13 8 14 9 15 10 16 18 17 11 18 12 19 17 20 13 21 16 22
REMARK SMILES IDX 14 23 15 24
REMARK H PARENT 12 25
ROOT
ATOM      1  C   UNL     1      -8.252   2.922 -16.620  1.00  0.00    +0.044 A 
ATOM      2  C   UNL     1      -8.391   1.755 -15.854  1.00  0.00    +0.027 A 
ATOM      3  C   UNL     1      -9.439   1.612 -14.951  1.00  0.00    +0.011 A 
ATOM      4  C   UNL     1     -10.389   2.628 -14.799  1.00  0.00    -0.017 A 
ATOM      5  C   UNL     1     -10.288   3.823 -15.557  1.00  0.00    -0.009 A 
ATOM      6  C   UNL     1     -11.222   4.884 -15.444  1.00  0.00    +0.009 A 
ATOM      7  C   UNL     1     -11.101   6.057 -16.191  1.00  0.00    +0.001 A 
ATOM      8  C   UNL     1     -10.042   6.204 -17.070  1.00  0.00    +0.001 A 
ATOM      9  C   UNL     1      -9.110   5.175 -17.205  1.00  0.00    +0.011 A 
ATOM     10  C   UNL     1      -9.208   3.970 -16.471  1.00  0.00    +0.006 A 
ENDROOT
BRANCH   1  11
ATOM     11  N   UNL     1      -7.202   3.055 -17.572  1.00  0.00    -0.377 N 
ATOM     12  C   UNL     1      -6.975   1.778 -18.259  1.00  0.00    +0.143 C 
ATOM     13  C   UNL     1      -5.987   3.685 -17.057  1.00  0.00    +0.143 C 
ENDBRANCH   1  11
BRANCH   4  14
ATOM     14  C   UNL     1     -11.455   2.427 -13.802  1.00  0.00    +0.023 C 
ATOM     15  C   UNL     1     -11.406   1.585 -12.759  1.00  0.00    +0.050 C 
ATOM     16  C   UNL     1     -10.276   0.664 -12.364  1.00  0.00    +0.256 C 
ATOM     17  C   UNL     1     -12.485   1.382 -11.785  1.00  0.00    +0.011 A 
ATOM     18  O   UNL     1      -9.191   0.518 -12.888  1.00  0.00    -0.269 OA
ATOM     19  N   UNL     1     -10.739   0.000 -11.235  1.00  0.00    -0.321 N 
ATOM     20  C   UNL     1     -13.743   1.935 -11.629  1.00  0.00    +0.011 A 
ATOM     21  C   UNL     1     -12.023   0.412 -10.891  1.00  0.00    +0.049 A 
ATOM     22  C   UNL     1     -14.528   1.493 -10.558  1.00  0.00    +0.001 A 
ATOM     23  C   UNL     1     -12.778  -0.040  -9.828  1.00  0.00    +0.027 A 
ATOM     24  C   UNL     1     -14.050   0.514  -9.666  1.00  0.00    +0.002 A 
ATOM     25  H   UNL     1     -10.186  -0.688 -10.750  1.00  0.00    +0.170 HD
ENDBRANCH   4  14
TORSDOF 2
ENDMDL
MODEL 10
REMARK VINA RESULT:    -7.099      6.828     10.291
REMARK INTER + INTRA:          -8.729
REMARK INTER:                  -7.955
REMARK INTRA:                  -0.774
REMARK UNBOUND:                -0.800
REMARK SMILES CN(C)c1ccc(/C=C2\C(=O)Nc3ccccc32)c2ccccc12
REMARK SMILES IDX 4 1 5 2 6 3 7 4 19 5 20 6 21 7 22 8 23 9 24 10 2 11 1 12
REMARK SMILES IDX 3 13 8 14 9 15 10 16 18 17 11 18 12 19 17 20 13 21 16 22
REMARK SMILES IDX 14 23 15 24
REMARK H PARENT 12 25
ROOT
ATOM      1  C   UNL     1     -13.926  -3.006  -7.432  1.00  0.00    +0.044 A 
ATOM      2  C   UNL     1     -14.348  -3.136  -8.764  1.00  0.00    +0.027 A 
ATOM      3  C   UNL     1     -14.297  -2.056  -9.640  1.00  0.00    +0.011 A 
ATOM      4  C   UNL     1     -13.807  -0.817  -9.211  1.00  0.00    -0.017 A 
ATOM      5  C   UNL     1     -13.367  -0.644  -7.873  1.00  0.00    -0.009 A 
ATOM      6  C   UNL     1     -12.860   0.587  -7.386  1.00  0.00    +0.009 A 
ATOM      7  C   UNL     1     -12.441   0.742  -6.063  1.00  0.00    +0.001 A 
ATOM      8  C   UNL     1     -12.517  -0.330  -5.190  1.00  0.00    +0.001 A 
ATOM      9  C   UNL     1     -13.006  -1.555  -5.643  1.00  0.00    +0.011 A 
ATOM     10  C   UNL     1     -13.431  -1.748  -6.979  1.00  0.00    +0.006 A 
ENDROOT
BRANCH   1  11
ATOM     11  N   UNL     1     -13.942  -4.120  -6.546  1.00  0.00    -0.377 N 
ATOM     12  C   UNL     1     -12.831  -5.029  -6.853  1.00  0.00    +0.143 C 
ATOM     13  C   UNL     1     -15.241  -4.779  -6.417  1.00  0.00    +0.143 C 
ENDBRANCH   1  11
BRANCH   4  14
ATOM     14  C   UNL     1     -13.810   0.293 -10.178  1.00  0.00    +0.023 C 
ATOM     15  C   UNL     1     -12.783   0.658 -10.959  1.00  0.00    +0.050 C 
ATOM     16  C   UNL     1     -11.410   0.034 -11.035  1.00  0.00    +0.256 C 
ATOM     17  C   UNL     1     -12.795   1.780 -11.905  1.00  0.00    +0.011 A 
ATOM     18  O   UNL     1     -10.971  -0.924 -10.431  1.00  0.00    -0.269 OA
ATOM     19  N   UNL     1     -10.726   0.795 -11.974  1.00  0.00    -0.321 N 
ATOM     20  C   UNL     1     -13.756   2.706 -12.271  1.00  0.00    +0.011 A 
ATOM     21  C   UNL     1     -11.524   1.813 -12.486  1.00  0.00    +0.049 A 
ATOM     22  C   UNL     1     -13.414   3.665 -13.231  1.00  0.00    +0.001 A 
ATOM     23  C   UNL     1     -11.164   2.749 -13.434  1.00  0.00    +0.027 A 
ATOM     24  C   UNL     1     -12.130   3.686 -13.807  1.00  0.00    +0.002 A 
ATOM     25  H   UNL     1      -9.770   0.605 -12.230  1.00  0.00    +0.170 HD
ENDBRANCH   4  14
TORSDOF 2
ENDMDL
