REMARK SMILES Cc1ccc(=O)n(-c2ccccc2)c1
REMARK SMILES IDX 1 1 2 2 3 3 4 4 5 5 6 6 7 7 14 8 8 9 9 10 13 11 10 12 12 13
REMARK SMILES IDX 11 14
REMARK H PARENT
ROOT
ATOM      1  C   UNL     1       3.600   0.779   0.862  1.00  0.00    +0.046 C 
ATOM      2  C   UNL     1       2.476  -0.034   0.295  1.00  0.00    -0.034 C 
ATOM      3  C   UNL     1       2.805  -1.306  -0.294  1.00  0.00    +0.010 C 
ATOM      4  C   UNL     1       1.844  -2.087  -0.795  1.00  0.00    +0.072 C 
ATOM      5  C   UNL     1       0.416  -1.660  -0.779  1.00  0.00    +0.255 C 
ATOM      6  O   UNL     1      -0.386  -2.424  -1.314  1.00  0.00    -0.269 OA
ATOM      7  N   UNL     1       0.142  -0.406  -0.184  1.00  0.00    -0.284 N 
ATOM      8  C   UNL     1       1.193   0.361   0.329  1.00  0.00    +0.098 C 
ENDROOT
BRANCH   7   9
ATOM      9  C   UNL     1      -1.223   0.080  -0.123  1.00  0.00    +0.049 A 
ATOM     10  C   UNL     1      -2.320  -0.793  -0.058  1.00  0.00    +0.027 A 
ATOM     11  C   UNL     1      -1.499   1.461  -0.109  1.00  0.00    +0.027 A 
ATOM     12  C   UNL     1      -3.633  -0.313   0.018  1.00  0.00    +0.002 A 
ATOM     13  C   UNL     1      -2.811   1.943  -0.034  1.00  0.00    +0.002 A 
ATOM     14  C   UNL     1      -3.878   1.056   0.030  1.00  0.00    +0.000 A 
ENDBRANCH   7   9
TORSDOF 1
