REMARK SMILES Cc1ccc(Nc2nccc(N(C)c3ccc4c(C)n(C)nc4c3)n2)cc1S(N)(=O)=O
REMARK SMILES IDX 6 1 5 3 2 4 3 5 27 6 4 7 26 8 1 9 28 10 30 11 31 12 29 13
REMARK SMILES IDX 7 16 8 17 25 18 9 19 11 20 10 21 12 22 13 23 14 24 15 25
REMARK SMILES IDX 24 26 16 27 23 28 17 29 22 30 18 31 20 32 19 33 21 34
REMARK H PARENT 6 2 29 14 29 15
ROOT
ATOM      1  N   UNL     1      -2.876   0.638   1.902  1.00  0.00    -0.324 N 
ATOM      2  H   UNL     1      -3.246   1.115   2.711  1.00  0.00    +0.170 HD
ENDROOT
BRANCH   1   3
ATOM      3  C   UNL     1      -3.776   0.307   0.885  1.00  0.00    +0.042 A 
ATOM      4  C   UNL     1      -5.713  -0.345  -1.104  1.00  0.00    -0.031 A 
ATOM      5  C   UNL     1      -4.348  -0.580  -1.314  1.00  0.00    +0.007 A 
ATOM      6  C   UNL     1      -6.104   0.203   0.128  1.00  0.00    +0.087 A 
ATOM      7  C   UNL     1      -3.401  -0.258  -0.334  1.00  0.00    +0.026 A 
ATOM      8  C   UNL     1      -5.144   0.527   1.103  1.00  0.00    +0.048 A 
ATOM      9  C   UNL     1      -6.690  -0.714  -2.185  1.00  0.00    +0.046 C 
BRANCH   6  10
ATOM     10  S   UNL     1      -7.821   0.482   0.477  1.00  0.00    +0.238 S 
ATOM     11  O   UNL     1      -8.209   1.737  -0.121  1.00  0.00    -0.207 OA
ATOM     12  O   UNL     1      -8.550  -0.746   0.267  1.00  0.00    -0.207 OA
BRANCH  10  13
ATOM     13  N   UNL     1      -7.896   0.736   2.140  1.00  0.00    -0.225 NA
ATOM     14  H   UNL     1      -8.449  -0.012   2.563  1.00  0.00    +0.137 HD
ATOM     15  H   UNL     1      -8.270   1.669   2.317  1.00  0.00    +0.137 HD
ENDBRANCH  10  13
ENDBRANCH   6  10
ENDBRANCH   1   3
BRANCH   1  16
ATOM     16  C   UNL     1      -1.498   0.519   2.059  1.00  0.00    +0.229 A 
ATOM     17  N   UNL     1      -1.021   1.045   3.196  1.00  0.00    -0.221 NA
ATOM     18  N   UNL     1      -0.725  -0.082   1.143  1.00  0.00    -0.195 NA
ATOM     19  C   UNL     1       0.301   0.947   3.403  1.00  0.00    +0.119 A 
ATOM     20  C   UNL     1       0.605  -0.157   1.357  1.00  0.00    +0.138 A 
ATOM     21  C   UNL     1       1.161   0.354   2.515  1.00  0.00    +0.067 A 
BRANCH  20  22
ATOM     22  N   UNL     1       1.453  -0.803   0.415  1.00  0.00    -0.329 N 
ATOM     23  C   UNL     1       0.725  -1.376  -0.724  1.00  0.00    +0.152 C 
BRANCH  22  24
ATOM     24  C   UNL     1       2.743  -0.326   0.018  1.00  0.00    +0.044 A 
ATOM     25  C   UNL     1       2.973   1.088  -0.144  1.00  0.00    +0.027 A 
ATOM     26  C   UNL     1       3.765  -1.283  -0.213  1.00  0.00    +0.057 A 
ATOM     27  C   UNL     1       4.204   1.662  -0.530  1.00  0.00    +0.014 A 
ATOM     28  C   UNL     1       5.000  -0.738  -0.598  1.00  0.00    +0.095 A 
ATOM     29  C   UNL     1       5.171   0.686  -0.739  1.00  0.00    +0.023 A 
ATOM     30  N   UNL     1       6.158  -1.353  -0.886  1.00  0.00    -0.173 NA
ATOM     31  C   UNL     1       6.473   0.905  -1.122  1.00  0.00    +0.043 A 
ATOM     32  N   UNL     1       7.012  -0.358  -1.202  1.00  0.00    -0.272 N 
ATOM     33  C   UNL     1       7.245   2.136  -1.418  1.00  0.00    +0.067 C 
ATOM     34  C   UNL     1       8.368  -0.698  -1.571  1.00  0.00    +0.174 C 
ENDBRANCH  22  24
ENDBRANCH  20  22
ENDBRANCH   1  16
TORSDOF 6
