MODEL 1
REMARK VINA RESULT:   -11.108      0.000      0.000
REMARK INTER + INTRA:         -14.789
REMARK INTER:                 -14.679
REMARK INTRA:                  -0.110
REMARK UNBOUND:                -0.110
REMARK SMILES Cc1ccc(Nc2nccc(N(C)c3ccc4c(C)n(C)nc4c3)n2)cc1S(N)(=O)=O
REMARK SMILES IDX 6 1 5 3 2 4 3 5 27 6 4 7 26 8 1 9 28 10 30 11 31 12 29 13
REMARK SMILES IDX 7 16 8 17 25 18 9 19 11 20 10 21 12 22 13 23 14 24 15 25
REMARK SMILES IDX 24 26 16 27 23 28 17 29 22 30 18 31 20 32 19 33 21 34
REMARK H PARENT 6 2 29 14 29 15
ROOT
ATOM      1  N   UNL     1     -38.933 157.247   3.306  1.00  0.00    -0.324 N 
ATOM      2  H   UNL     1     -39.639 156.607   3.640  1.00  0.00    +0.170 HD
ENDROOT
BRANCH   1   3
ATOM      3  C   UNL     1     -37.668 157.171   3.896  1.00  0.00    +0.042 A 
ATOM      4  C   UNL     1     -35.116 156.890   5.137  1.00  0.00    -0.031 A 
ATOM      5  C   UNL     1     -35.558 158.130   4.658  1.00  0.00    +0.007 A 
ATOM      6  C   UNL     1     -35.977 155.789   5.008  1.00  0.00    +0.087 A 
ATOM      7  C   UNL     1     -36.812 158.262   4.049  1.00  0.00    +0.026 A 
ATOM      8  C   UNL     1     -37.232 155.933   4.390  1.00  0.00    +0.048 A 
ATOM      9  C   UNL     1     -33.764 156.802   5.788  1.00  0.00    +0.046 C 
BRANCH   6  10
ATOM     10  S   UNL     1     -35.497 154.201   5.636  1.00  0.00    +0.238 S 
ATOM     11  O   UNL     1     -34.263 153.812   4.996  1.00  0.00    -0.207 OA
ATOM     12  O   UNL     1     -35.677 154.187   7.068  1.00  0.00    -0.207 OA
BRANCH  10  13
ATOM     13  N   UNL     1     -36.660 153.129   5.056  1.00  0.00    -0.225 NA
ATOM     14  H   UNL     1     -37.086 153.528   4.217  1.00  0.00    +0.137 HD
ATOM     15  H   UNL     1     -37.331 152.933   5.799  1.00  0.00    +0.137 HD
ENDBRANCH  10  13
ENDBRANCH   6  10
ENDBRANCH   1   3
BRANCH   1  16
ATOM     16  C   UNL     1     -39.478 157.993   2.266  1.00  0.00    +0.229 A 
ATOM     17  N   UNL     1     -40.629 158.610   2.569  1.00  0.00    -0.221 NA
ATOM     18  N   UNL     1     -38.886 158.085   1.066  1.00  0.00    -0.195 NA
ATOM     19  C   UNL     1     -41.193 159.353   1.604  1.00  0.00    +0.119 A 
ATOM     20  C   UNL     1     -39.474 158.821   0.101  1.00  0.00    +0.138 A 
ATOM     21  C   UNL     1     -40.655 159.494   0.350  1.00  0.00    +0.067 A 
BRANCH  20  22
ATOM     22  N   UNL     1     -38.864 158.954  -1.178  1.00  0.00    -0.329 N 
ATOM     23  C   UNL     1     -39.047 157.775  -2.034  1.00  0.00    +0.152 C 
BRANCH  22  24
ATOM     24  C   UNL     1     -38.848 160.159  -1.952  1.00  0.00    +0.044 A 
ATOM     25  C   UNL     1     -39.137 161.425  -1.326  1.00  0.00    +0.027 A 
ATOM     26  C   UNL     1     -38.550 160.057  -3.335  1.00  0.00    +0.057 A 
ATOM     27  C   UNL     1     -39.147 162.668  -1.996  1.00  0.00    +0.014 A 
ATOM     28  C   UNL     1     -38.553 161.280  -4.025  1.00  0.00    +0.095 A 
ATOM     29  C   UNL     1     -38.845 162.515  -3.344  1.00  0.00    +0.023 A 
ATOM     30  N   UNL     1     -38.312 161.536  -5.321  1.00  0.00    -0.173 NA
ATOM     31  C   UNL     1     -38.772 163.523  -4.276  1.00  0.00    +0.043 A 
ATOM     32  N   UNL     1     -38.457 162.871  -5.445  1.00  0.00    -0.272 N 
ATOM     33  C   UNL     1     -38.964 164.991  -4.193  1.00  0.00    +0.067 C 
ATOM     34  C   UNL     1     -38.264 163.472  -6.746  1.00  0.00    +0.174 C 
ENDBRANCH  22  24
ENDBRANCH  20  22
ENDBRANCH   1  16
TORSDOF 6
ENDMDL
MODEL 2
REMARK VINA RESULT:   -10.709      6.756     11.861
REMARK INTER + INTRA:         -14.262
REMARK INTER:                 -13.943
REMARK INTRA:                  -0.319
REMARK UNBOUND:                -0.110
REMARK SMILES Cc1ccc(Nc2nccc(N(C)c3ccc4c(C)n(C)nc4c3)n2)cc1S(N)(=O)=O
REMARK SMILES IDX 6 1 5 3 2 4 3 5 27 6 4 7 26 8 1 9 28 10 30 11 31 12 29 13
REMARK SMILES IDX 7 16 8 17 25 18 9 19 11 20 10 21 12 22 13 23 14 24 15 25
REMARK SMILES IDX 24 26 16 27 23 28 17 29 22 30 18 31 20 32 19 33 21 34
REMARK H PARENT 6 2 29 14 29 15
ROOT
ATOM      1  N   UNL     1     -38.610 164.928  -5.523  1.00  0.00    -0.324 N 
ATOM      2  H   UNL     1     -38.809 165.909  -5.389  1.00  0.00    +0.170 HD
ENDROOT
BRANCH   1   3
ATOM      3  C   UNL     1     -38.255 164.516  -6.811  1.00  0.00    +0.042 A 
ATOM      4  C   UNL     1     -37.538 163.803  -9.477  1.00  0.00    -0.031 A 
ATOM      5  C   UNL     1     -37.862 162.827  -8.526  1.00  0.00    +0.007 A 
ATOM      6  C   UNL     1     -37.598 165.149  -9.084  1.00  0.00    +0.087 A 
ATOM      7  C   UNL     1     -38.213 163.182  -7.218  1.00  0.00    +0.026 A 
ATOM      8  C   UNL     1     -37.948 165.495  -7.767  1.00  0.00    +0.048 A 
ATOM      9  C   UNL     1     -37.172 163.370 -10.869  1.00  0.00    +0.046 C 
BRANCH   6  10
ATOM     10  S   UNL     1     -37.245 166.437 -10.253  1.00  0.00    +0.238 S 
ATOM     11  O   UNL     1     -35.875 166.298 -10.684  1.00  0.00    -0.207 OA
ATOM     12  O   UNL     1     -38.350 166.552 -11.174  1.00  0.00    -0.207 OA
BRANCH  10  13
ATOM     13  N   UNL     1     -37.292 167.865  -9.361  1.00  0.00    -0.225 NA
ATOM     14  H   UNL     1     -38.096 167.834  -8.731  1.00  0.00    +0.137 HD
ATOM     15  H   UNL     1     -37.307 168.658 -10.003  1.00  0.00    +0.137 HD
ENDBRANCH  10  13
ENDBRANCH   6  10
ENDBRANCH   1   3
BRANCH   1  16
ATOM     16  C   UNL     1     -38.703 164.292  -4.288  1.00  0.00    +0.229 A 
ATOM     17  N   UNL     1     -38.497 165.094  -3.234  1.00  0.00    -0.221 NA
ATOM     18  N   UNL     1     -38.983 162.986  -4.178  1.00  0.00    -0.195 NA
ATOM     19  C   UNL     1     -38.587 164.533  -2.018  1.00  0.00    +0.119 A 
ATOM     20  C   UNL     1     -39.052 162.433  -2.950  1.00  0.00    +0.138 A 
ATOM     21  C   UNL     1     -38.863 163.205  -1.819  1.00  0.00    +0.067 A 
BRANCH  20  22
ATOM     22  N   UNL     1     -39.365 161.053  -2.795  1.00  0.00    -0.329 N 
ATOM     23  C   UNL     1     -38.604 160.181  -3.698  1.00  0.00    +0.152 C 
BRANCH  22  24
ATOM     24  C   UNL     1     -39.613 160.410  -1.541  1.00  0.00    +0.044 A 
ATOM     25  C   UNL     1     -40.916 160.495  -0.929  1.00  0.00    +0.027 A 
ATOM     26  C   UNL     1     -38.544 159.704  -0.930  1.00  0.00    +0.057 A 
ATOM     27  C   UNL     1     -41.266 159.898   0.301  1.00  0.00    +0.014 A 
ATOM     28  C   UNL     1     -38.865 159.101   0.295  1.00  0.00    +0.095 A 
ATOM     29  C   UNL     1     -40.189 159.217   0.855  1.00  0.00    +0.023 A 
ATOM     30  N   UNL     1     -38.100 158.368   1.119  1.00  0.00    -0.173 NA
ATOM     31  C   UNL     1     -40.191 158.528   2.044  1.00  0.00    +0.043 A 
ATOM     32  N   UNL     1     -38.906 158.048   2.152  1.00  0.00    -0.272 N 
ATOM     33  C   UNL     1     -41.236 158.280   3.066  1.00  0.00    +0.067 C 
ATOM     34  C   UNL     1     -38.368 157.251   3.232  1.00  0.00    +0.174 C 
ENDBRANCH  22  24
ENDBRANCH  20  22
ENDBRANCH   1  16
TORSDOF 6
ENDMDL
MODEL 3
REMARK VINA RESULT:   -10.580      1.430      2.183
REMARK INTER + INTRA:         -14.091
REMARK INTER:                 -13.484
REMARK INTRA:                  -0.608
REMARK UNBOUND:                -0.110
REMARK SMILES Cc1ccc(Nc2nccc(N(C)c3ccc4c(C)n(C)nc4c3)n2)cc1S(N)(=O)=O
REMARK SMILES IDX 6 1 5 3 2 4 3 5 27 6 4 7 26 8 1 9 28 10 30 11 31 12 29 13
REMARK SMILES IDX 7 16 8 17 25 18 9 19 11 20 10 21 12 22 13 23 14 24 15 25
REMARK SMILES IDX 24 26 16 27 23 28 17 29 22 30 18 31 20 32 19 33 21 34
REMARK H PARENT 6 2 29 14 29 15
ROOT
ATOM      1  N   UNL     1     -37.936 157.883   1.967  1.00  0.00    -0.324 N 
ATOM      2  H   UNL     1     -37.403 157.507   1.196  1.00  0.00    +0.170 HD
ENDROOT
BRANCH   1   3
ATOM      3  C   UNL     1     -37.520 157.549   3.258  1.00  0.00    +0.042 A 
ATOM      4  C   UNL     1     -36.712 156.740   5.871  1.00  0.00    -0.031 A 
ATOM      5  C   UNL     1     -36.738 158.092   5.504  1.00  0.00    +0.007 A 
ATOM      6  C   UNL     1     -37.118 155.792   4.918  1.00  0.00    +0.087 A 
ATOM      7  C   UNL     1     -37.136 158.483   4.220  1.00  0.00    +0.026 A 
ATOM      8  C   UNL     1     -37.511 156.196   3.630  1.00  0.00    +0.048 A 
ATOM      9  C   UNL     1     -36.283 156.372   7.264  1.00  0.00    +0.046 C 
BRANCH   6  10
ATOM     10  S   UNL     1     -37.154 154.067   5.333  1.00  0.00    +0.238 S 
ATOM     11  O   UNL     1     -35.803 153.561   5.293  1.00  0.00    -0.207 OA
ATOM     12  O   UNL     1     -38.032 153.872   6.462  1.00  0.00    -0.207 OA
BRANCH  10  13
ATOM     13  N   UNL     1     -37.949 153.323   4.049  1.00  0.00    -0.225 NA
ATOM     14  H   UNL     1     -37.638 153.752   3.175  1.00  0.00    +0.137 HD
ATOM     15  H   UNL     1     -38.956 153.388   4.199  1.00  0.00    +0.137 HD
ENDBRANCH  10  13
ENDBRANCH   6  10
ENDBRANCH   1   3
BRANCH   1  16
ATOM     16  C   UNL     1     -38.930 158.708   1.447  1.00  0.00    +0.229 A 
ATOM     17  N   UNL     1     -40.180 158.322   1.738  1.00  0.00    -0.221 NA
ATOM     18  N   UNL     1     -38.645 159.800   0.723  1.00  0.00    -0.195 NA
ATOM     19  C   UNL     1     -41.177 159.089   1.271  1.00  0.00    +0.119 A 
ATOM     20  C   UNL     1     -39.658 160.551   0.245  1.00  0.00    +0.138 A 
ATOM     21  C   UNL     1     -40.972 160.216   0.519  1.00  0.00    +0.067 A 
BRANCH  20  22
ATOM     22  N   UNL     1     -39.392 161.726  -0.512  1.00  0.00    -0.329 N 
ATOM     23  C   UNL     1     -38.551 162.697   0.199  1.00  0.00    +0.152 C 
BRANCH  22  24
ATOM     24  C   UNL     1     -39.131 161.747  -1.919  1.00  0.00    +0.044 A 
ATOM     25  C   UNL     1     -38.996 160.511  -2.649  1.00  0.00    +0.027 A 
ATOM     26  C   UNL     1     -39.004 163.010  -2.554  1.00  0.00    +0.057 A 
ATOM     27  C   UNL     1     -38.739 160.420  -4.034  1.00  0.00    +0.014 A 
ATOM     28  C   UNL     1     -38.749 162.948  -3.933  1.00  0.00    +0.095 A 
ATOM     29  C   UNL     1     -38.629 161.681  -4.609  1.00  0.00    +0.023 A 
ATOM     30  N   UNL     1     -38.580 163.940  -4.821  1.00  0.00    -0.173 NA
ATOM     31  C   UNL     1     -38.382 161.947  -5.935  1.00  0.00    +0.043 A 
ATOM     32  N   UNL     1     -38.355 163.321  -5.998  1.00  0.00    -0.272 N 
ATOM     33  C   UNL     1     -38.169 161.077  -7.117  1.00  0.00    +0.067 C 
ATOM     34  C   UNL     1     -38.126 164.129  -7.175  1.00  0.00    +0.174 C 
ENDBRANCH  22  24
ENDBRANCH  20  22
ENDBRANCH   1  16
TORSDOF 6
ENDMDL
MODEL 4
REMARK VINA RESULT:   -10.374      1.471      1.895
REMARK INTER + INTRA:         -13.819
REMARK INTER:                 -13.364
REMARK INTRA:                  -0.455
REMARK UNBOUND:                -0.110
REMARK SMILES Cc1ccc(Nc2nccc(N(C)c3ccc4c(C)n(C)nc4c3)n2)cc1S(N)(=O)=O
REMARK SMILES IDX 6 1 5 3 2 4 3 5 27 6 4 7 26 8 1 9 28 10 30 11 31 12 29 13
REMARK SMILES IDX 7 16 8 17 25 18 9 19 11 20 10 21 12 22 13 23 14 24 15 25
REMARK SMILES IDX 24 26 16 27 23 28 17 29 22 30 18 31 20 32 19 33 21 34
REMARK H PARENT 6 2 29 14 29 15
ROOT
ATOM      1  N   UNL     1     -38.182 158.473   3.479  1.00  0.00    -0.324 N 
ATOM      2  H   UNL     1     -38.071 159.339   3.985  1.00  0.00    +0.170 HD
ENDROOT
BRANCH   1   3
ATOM      3  C   UNL     1     -37.598 157.329   4.029  1.00  0.00    +0.042 A 
ATOM      4  C   UNL     1     -36.285 155.057   5.148  1.00  0.00    -0.031 A 
ATOM      5  C   UNL     1     -37.621 154.993   4.729  1.00  0.00    +0.007 A 
ATOM      6  C   UNL     1     -35.602 156.272   4.980  1.00  0.00    +0.087 A 
ATOM      7  C   UNL     1     -38.260 156.111   4.181  1.00  0.00    +0.026 A 
ATOM      8  C   UNL     1     -36.255 157.390   4.432  1.00  0.00    +0.048 A 
ATOM      9  C   UNL     1     -35.642 153.827   5.724  1.00  0.00    +0.046 C 
BRANCH   6  10
ATOM     10  S   UNL     1     -33.895 156.409   5.445  1.00  0.00    +0.238 S 
ATOM     11  O   UNL     1     -33.825 156.568   6.878  1.00  0.00    -0.207 OA
ATOM     12  O   UNL     1     -33.130 155.417   4.728  1.00  0.00    -0.207 OA
BRANCH  10  13
ATOM     13  N   UNL     1     -33.381 157.879   4.805  1.00  0.00    -0.225 NA
ATOM     14  H   UNL     1     -32.657 157.699   4.107  1.00  0.00    +0.137 HD
ATOM     15  H   UNL     1     -33.071 158.483   5.567  1.00  0.00    +0.137 HD
ENDBRANCH  10  13
ENDBRANCH   6  10
ENDBRANCH   1   3
BRANCH   1  16
ATOM     16  C   UNL     1     -38.982 158.718   2.366  1.00  0.00    +0.229 A 
ATOM     17  N   UNL     1     -40.279 158.909   2.646  1.00  0.00    -0.221 NA
ATOM     18  N   UNL     1     -38.481 158.764   1.124  1.00  0.00    -0.195 NA
ATOM     19  C   UNL     1     -41.093 159.161   1.609  1.00  0.00    +0.119 A 
ATOM     20  C   UNL     1     -39.315 159.001   0.090  1.00  0.00    +0.138 A 
ATOM     21  C   UNL     1     -40.662 159.219   0.309  1.00  0.00    +0.067 A 
BRANCH  20  22
ATOM     22  N   UNL     1     -38.814 159.074  -1.240  1.00  0.00    -0.329 N 
ATOM     23  C   UNL     1     -39.137 157.891  -2.047  1.00  0.00    +0.152 C 
BRANCH  22  24
ATOM     24  C   UNL     1     -38.800 160.260  -2.041  1.00  0.00    +0.044 A 
ATOM     25  C   UNL     1     -39.069 161.543  -1.440  1.00  0.00    +0.027 A 
ATOM     26  C   UNL     1     -38.524 160.125  -3.427  1.00  0.00    +0.057 A 
ATOM     27  C   UNL     1     -39.079 162.770  -2.138  1.00  0.00    +0.014 A 
ATOM     28  C   UNL     1     -38.528 161.331  -4.144  1.00  0.00    +0.095 A 
ATOM     29  C   UNL     1     -38.799 162.585  -3.487  1.00  0.00    +0.023 A 
ATOM     30  N   UNL     1     -38.305 161.555  -5.449  1.00  0.00    -0.173 NA
ATOM     31  C   UNL     1     -38.732 163.570  -4.443  1.00  0.00    +0.043 A 
ATOM     32  N   UNL     1     -38.441 162.888  -5.602  1.00  0.00    -0.272 N 
ATOM     33  C   UNL     1     -38.910 165.041  -4.391  1.00  0.00    +0.067 C 
ATOM     34  C   UNL     1     -38.263 163.458  -6.919  1.00  0.00    +0.174 C 
ENDBRANCH  22  24
ENDBRANCH  20  22
ENDBRANCH   1  16
TORSDOF 6
ENDMDL
MODEL 5
REMARK VINA RESULT:    -9.787      4.674     11.040
REMARK INTER + INTRA:         -13.043
REMARK INTER:                 -12.707
REMARK INTRA:                  -0.337
REMARK UNBOUND:                -0.110
REMARK SMILES Cc1ccc(Nc2nccc(N(C)c3ccc4c(C)n(C)nc4c3)n2)cc1S(N)(=O)=O
REMARK SMILES IDX 6 1 5 3 2 4 3 5 27 6 4 7 26 8 1 9 28 10 30 11 31 12 29 13
REMARK SMILES IDX 7 16 8 17 25 18 9 19 11 20 10 21 12 22 13 23 14 24 15 25
REMARK SMILES IDX 24 26 16 27 23 28 17 29 22 30 18 31 20 32 19 33 21 34
REMARK H PARENT 6 2 29 14 29 15
ROOT
ATOM      1  N   UNL     1     -38.297 157.200   2.514  1.00  0.00    -0.324 N 
ATOM      2  H   UNL     1     -38.120 156.357   1.988  1.00  0.00    +0.170 HD
ENDROOT
BRANCH   1   3
ATOM      3  C   UNL     1     -39.284 158.063   2.030  1.00  0.00    +0.042 A 
ATOM      4  C   UNL     1     -41.204 159.887   0.971  1.00  0.00    -0.031 A 
ATOM      5  C   UNL     1     -41.534 159.004   2.008  1.00  0.00    +0.007 A 
ATOM      6  C   UNL     1     -39.889 159.862   0.480  1.00  0.00    +0.087 A 
ATOM      7  C   UNL     1     -40.588 158.111   2.524  1.00  0.00    +0.026 A 
ATOM      8  C   UNL     1     -38.948 158.957   1.003  1.00  0.00    +0.048 A 
ATOM      9  C   UNL     1     -42.255 160.830   0.455  1.00  0.00    +0.046 C 
BRANCH   6  10
ATOM     10  S   UNL     1     -39.392 160.985  -0.800  1.00  0.00    +0.238 S 
ATOM     11  O   UNL     1     -40.388 160.955  -1.844  1.00  0.00    -0.207 OA
ATOM     12  O   UNL     1     -38.924 162.210  -0.196  1.00  0.00    -0.207 OA
BRANCH  10  13
ATOM     13  N   UNL     1     -38.012 160.297  -1.477  1.00  0.00    -0.225 NA
ATOM     14  H   UNL     1     -37.396 159.986  -0.724  1.00  0.00    +0.137 HD
ATOM     15  H   UNL     1     -37.577 160.974  -2.105  1.00  0.00    +0.137 HD
ENDBRANCH  10  13
ENDBRANCH   6  10
ENDBRANCH   1   3
BRANCH   1  16
ATOM     16  C   UNL     1     -37.488 157.185   3.647  1.00  0.00    +0.229 A 
ATOM     17  N   UNL     1     -37.482 158.332   4.340  1.00  0.00    -0.221 NA
ATOM     18  N   UNL     1     -36.784 156.102   4.006  1.00  0.00    -0.195 NA
ATOM     19  C   UNL     1     -36.726 158.368   5.448  1.00  0.00    +0.119 A 
ATOM     20  C   UNL     1     -36.015 156.159   5.113  1.00  0.00    +0.138 A 
ATOM     21  C   UNL     1     -35.973 157.308   5.882  1.00  0.00    +0.067 A 
BRANCH  20  22
ATOM     22  N   UNL     1     -35.269 155.024   5.534  1.00  0.00    -0.329 N 
ATOM     23  C   UNL     1     -34.268 155.335   6.562  1.00  0.00    +0.152 C 
BRANCH  22  24
ATOM     24  C   UNL     1     -35.815 153.714   5.723  1.00  0.00    +0.044 A 
ATOM     25  C   UNL     1     -37.216 153.550   6.021  1.00  0.00    +0.027 A 
ATOM     26  C   UNL     1     -34.936 152.604   5.615  1.00  0.00    +0.057 A 
ATOM     27  C   UNL     1     -37.853 152.306   6.223  1.00  0.00    +0.014 A 
ATOM     28  C   UNL     1     -35.546 151.355   5.812  1.00  0.00    +0.095 A 
ATOM     29  C   UNL     1     -36.954 151.254   6.103  1.00  0.00    +0.023 A 
ATOM     30  N   UNL     1     -35.012 150.124   5.777  1.00  0.00    -0.173 NA
ATOM     31  C   UNL     1     -37.247 149.918   6.241  1.00  0.00    +0.043 A 
ATOM     32  N   UNL     1     -36.039 149.291   6.044  1.00  0.00    -0.272 N 
ATOM     33  C   UNL     1     -38.502 149.185   6.536  1.00  0.00    +0.067 C 
ATOM     34  C   UNL     1     -35.786 147.868   6.084  1.00  0.00    +0.174 C 
ENDBRANCH  22  24
ENDBRANCH  20  22
ENDBRANCH   1  16
TORSDOF 6
ENDMDL
MODEL 6
REMARK VINA RESULT:    -9.481      5.447     10.866
REMARK INTER + INTRA:         -12.639
REMARK INTER:                 -12.508
REMARK INTRA:                  -0.130
REMARK UNBOUND:                -0.110
REMARK SMILES Cc1ccc(Nc2nccc(N(C)c3ccc4c(C)n(C)nc4c3)n2)cc1S(N)(=O)=O
REMARK SMILES IDX 6 1 5 3 2 4 3 5 27 6 4 7 26 8 1 9 28 10 30 11 31 12 29 13
REMARK SMILES IDX 7 16 8 17 25 18 9 19 11 20 10 21 12 22 13 23 14 24 15 25
REMARK SMILES IDX 24 26 16 27 23 28 17 29 22 30 18 31 20 32 19 33 21 34
REMARK H PARENT 6 2 29 14 29 15
ROOT
ATOM      1  N   UNL     1     -38.970 165.071  -5.330  1.00  0.00    -0.324 N 
ATOM      2  H   UNL     1     -39.459 165.940  -5.172  1.00  0.00    +0.170 HD
ENDROOT
BRANCH   1   3
ATOM      3  C   UNL     1     -38.465 164.843  -6.613  1.00  0.00    +0.042 A 
ATOM      4  C   UNL     1     -37.404 164.251  -9.194  1.00  0.00    -0.031 A 
ATOM      5  C   UNL     1     -37.747 165.560  -8.831  1.00  0.00    +0.007 A 
ATOM      6  C   UNL     1     -37.577 163.238  -8.238  1.00  0.00    +0.087 A 
ATOM      7  C   UNL     1     -38.268 165.845  -7.563  1.00  0.00    +0.026 A 
ATOM      8  C   UNL     1     -38.105 163.534  -6.969  1.00  0.00    +0.048 A 
ATOM      9  C   UNL     1     -36.844 163.999 -10.565  1.00  0.00    +0.046 C 
BRANCH   6  10
ATOM     10  S   UNL     1     -37.118 161.566  -8.616  1.00  0.00    +0.238 S 
ATOM     11  O   UNL     1     -37.486 161.291  -9.984  1.00  0.00    -0.207 OA
ATOM     12  O   UNL     1     -35.798 161.310  -8.091  1.00  0.00    -0.207 OA
BRANCH  10  13
ATOM     13  N   UNL     1     -38.136 160.608  -7.677  1.00  0.00    -0.225 NA
ATOM     14  H   UNL     1     -38.878 161.195  -7.291  1.00  0.00    +0.137 HD
ATOM     15  H   UNL     1     -37.581 160.132  -6.965  1.00  0.00    +0.137 HD
ENDBRANCH  10  13
ENDBRANCH   6  10
ENDBRANCH   1   3
BRANCH   1  16
ATOM     16  C   UNL     1     -38.909 164.380  -4.123  1.00  0.00    +0.229 A 
ATOM     17  N   UNL     1     -38.560 165.132  -3.069  1.00  0.00    -0.221 NA
ATOM     18  N   UNL     1     -39.187 163.071  -4.035  1.00  0.00    -0.195 NA
ATOM     19  C   UNL     1     -38.498 164.518  -1.878  1.00  0.00    +0.119 A 
ATOM     20  C   UNL     1     -39.103 162.464  -2.834  1.00  0.00    +0.138 A 
ATOM     21  C   UNL     1     -38.761 163.184  -1.704  1.00  0.00    +0.067 A 
BRANCH  20  22
ATOM     22  N   UNL     1     -39.407 161.081  -2.701  1.00  0.00    -0.329 N 
ATOM     23  C   UNL     1     -38.610 160.223  -3.586  1.00  0.00    +0.152 C 
BRANCH  22  24
ATOM     24  C   UNL     1     -39.690 160.424  -1.461  1.00  0.00    +0.044 A 
ATOM     25  C   UNL     1     -41.028 160.437  -0.924  1.00  0.00    +0.027 A 
ATOM     26  C   UNL     1     -38.620 159.777  -0.790  1.00  0.00    +0.057 A 
ATOM     27  C   UNL     1     -41.414 159.822   0.287  1.00  0.00    +0.014 A 
ATOM     28  C   UNL     1     -38.977 159.157   0.418  1.00  0.00    +0.095 A 
ATOM     29  C   UNL     1     -40.334 159.200   0.902  1.00  0.00    +0.023 A 
ATOM     30  N   UNL     1     -38.220 158.466   1.285  1.00  0.00    -0.173 NA
ATOM     31  C   UNL     1     -40.365 158.511   2.091  1.00  0.00    +0.043 A 
ATOM     32  N   UNL     1     -39.064 158.103   2.272  1.00  0.00    -0.272 N 
ATOM     33  C   UNL     1     -41.452 158.207   3.053  1.00  0.00    +0.067 C 
ATOM     34  C   UNL     1     -38.545 157.336   3.383  1.00  0.00    +0.174 C 
ENDBRANCH  22  24
ENDBRANCH  20  22
ENDBRANCH   1  16
TORSDOF 6
ENDMDL
MODEL 7
REMARK VINA RESULT:    -9.339      3.839      6.557
REMARK INTER + INTRA:         -12.451
REMARK INTER:                 -13.172
REMARK INTRA:                   0.721
REMARK UNBOUND:                -0.110
REMARK SMILES Cc1ccc(Nc2nccc(N(C)c3ccc4c(C)n(C)nc4c3)n2)cc1S(N)(=O)=O
REMARK SMILES IDX 6 1 5 3 2 4 3 5 27 6 4 7 26 8 1 9 28 10 30 11 31 12 29 13
REMARK SMILES IDX 7 16 8 17 25 18 9 19 11 20 10 21 12 22 13 23 14 24 15 25
REMARK SMILES IDX 24 26 16 27 23 28 17 29 22 30 18 31 20 32 19 33 21 34
REMARK H PARENT 6 2 29 14 29 15
ROOT
ATOM      1  N   UNL     1     -39.723 161.902  -1.042  1.00  0.00    -0.324 N 
ATOM      2  H   UNL     1     -39.567 162.848  -0.727  1.00  0.00    +0.170 HD
ENDROOT
BRANCH   1   3
ATOM      3  C   UNL     1     -40.304 161.011  -0.134  1.00  0.00    +0.042 A 
ATOM      4  C   UNL     1     -41.369 159.138   1.734  1.00  0.00    -0.031 A 
ATOM      5  C   UNL     1     -42.208 159.966   0.977  1.00  0.00    +0.007 A 
ATOM      6  C   UNL     1     -39.984 159.242   1.530  1.00  0.00    +0.087 A 
ATOM      7  C   UNL     1     -41.680 160.885   0.061  1.00  0.00    +0.026 A 
ATOM      8  C   UNL     1     -39.465 160.171   0.611  1.00  0.00    +0.048 A 
ATOM      9  C   UNL     1     -41.986 158.165   2.700  1.00  0.00    +0.046 C 
BRANCH   6  10
ATOM     10  S   UNL     1     -38.868 158.189   2.422  1.00  0.00    +0.238 S 
ATOM     11  O   UNL     1     -38.374 158.916   3.566  1.00  0.00    -0.207 OA
ATOM     12  O   UNL     1     -39.442 156.869   2.519  1.00  0.00    -0.207 OA
BRANCH  10  13
ATOM     13  N   UNL     1     -37.539 157.996   1.405  1.00  0.00    -0.225 NA
ATOM     14  H   UNL     1     -36.701 158.314   1.895  1.00  0.00    +0.137 HD
ATOM     15  H   UNL     1     -37.714 158.494   0.532  1.00  0.00    +0.137 HD
ENDBRANCH  10  13
ENDBRANCH   6  10
ENDBRANCH   1   3
BRANCH   1  16
ATOM     16  C   UNL     1     -39.337 161.818  -2.377  1.00  0.00    +0.229 A 
ATOM     17  N   UNL     1     -39.336 160.574  -2.877  1.00  0.00    -0.221 NA
ATOM     18  N   UNL     1     -39.004 162.901  -3.092  1.00  0.00    -0.195 NA
ATOM     19  C   UNL     1     -38.983 160.437  -4.164  1.00  0.00    +0.119 A 
ATOM     20  C   UNL     1     -38.633 162.746  -4.380  1.00  0.00    +0.138 A 
ATOM     21  C   UNL     1     -38.623 161.492  -4.963  1.00  0.00    +0.067 A 
BRANCH  20  22
ATOM     22  N   UNL     1     -38.290 163.875  -5.175  1.00  0.00    -0.329 N 
ATOM     23  C   UNL     1     -37.248 164.714  -4.570  1.00  0.00    +0.152 C 
BRANCH  22  24
ATOM     24  C   UNL     1     -38.184 163.866  -6.602  1.00  0.00    +0.044 A 
ATOM     25  C   UNL     1     -38.118 162.614  -7.315  1.00  0.00    +0.027 A 
ATOM     26  C   UNL     1     -38.141 165.115  -7.275  1.00  0.00    +0.057 A 
ATOM     27  C   UNL     1     -38.013 162.494  -8.718  1.00  0.00    +0.014 A 
ATOM     28  C   UNL     1     -38.038 165.023  -8.672  1.00  0.00    +0.095 A 
ATOM     29  C   UNL     1     -37.980 163.741  -9.329  1.00  0.00    +0.023 A 
ATOM     30  N   UNL     1     -37.978 165.996  -9.595  1.00  0.00    -0.173 NA
ATOM     31  C   UNL     1     -37.882 163.979 -10.679  1.00  0.00    +0.043 A 
ATOM     32  N   UNL     1     -37.877 165.351 -10.775  1.00  0.00    -0.272 N 
ATOM     33  C   UNL     1     -37.791 163.084 -11.858  1.00  0.00    +0.067 C 
ATOM     34  C   UNL     1     -37.787 166.134 -11.988  1.00  0.00    +0.174 C 
ENDBRANCH  22  24
ENDBRANCH  20  22
ENDBRANCH   1  16
TORSDOF 6
ENDMDL
MODEL 8
REMARK VINA RESULT:    -9.122      6.885     11.281
REMARK INTER + INTRA:         -12.165
REMARK INTER:                 -12.073
REMARK INTRA:                  -0.092
REMARK UNBOUND:                -0.110
REMARK SMILES Cc1ccc(Nc2nccc(N(C)c3ccc4c(C)n(C)nc4c3)n2)cc1S(N)(=O)=O
REMARK SMILES IDX 6 1 5 3 2 4 3 5 27 6 4 7 26 8 1 9 28 10 30 11 31 12 29 13
REMARK SMILES IDX 7 16 8 17 25 18 9 19 11 20 10 21 12 22 13 23 14 24 15 25
REMARK SMILES IDX 24 26 16 27 23 28 17 29 22 30 18 31 20 32 19 33 21 34
REMARK H PARENT 6 2 29 14 29 15
ROOT
ATOM      1  N   UNL     1     -35.987 159.113  -8.849  1.00  0.00    -0.324 N 
ATOM      2  H   UNL     1     -35.511 159.072  -7.960  1.00  0.00    +0.170 HD
ENDROOT
BRANCH   1   3
ATOM      3  C   UNL     1     -35.910 157.984  -9.670  1.00  0.00    +0.042 A 
ATOM      4  C   UNL     1     -35.859 155.629 -11.277  1.00  0.00    -0.031 A 
ATOM      5  C   UNL     1     -34.830 156.577 -11.345  1.00  0.00    +0.007 A 
ATOM      6  C   UNL     1     -36.910 155.861 -10.376  1.00  0.00    +0.087 A 
ATOM      7  C   UNL     1     -34.861 157.732 -10.553  1.00  0.00    +0.026 A 
ATOM      8  C   UNL     1     -36.932 157.026  -9.589  1.00  0.00    +0.048 A 
ATOM      9  C   UNL     1     -35.777 154.403 -12.143  1.00  0.00    +0.046 C 
BRANCH   6  10
ATOM     10  S   UNL     1     -38.220 154.676 -10.206  1.00  0.00    +0.238 S 
ATOM     11  O   UNL     1     -39.180 154.906 -11.259  1.00  0.00    -0.207 OA
ATOM     12  O   UNL     1     -37.649 153.379  -9.933  1.00  0.00    -0.207 OA
BRANCH  10  13
ATOM     13  N   UNL     1     -39.010 155.096  -8.780  1.00  0.00    -0.225 NA
ATOM     14  H   UNL     1     -38.358 155.606  -8.180  1.00  0.00    +0.137 HD
ATOM     15  H   UNL     1     -39.386 154.251  -8.347  1.00  0.00    +0.137 HD
ENDBRANCH  10  13
ENDBRANCH   6  10
ENDBRANCH   1   3
BRANCH   1  16
ATOM     16  C   UNL     1     -36.649 160.334  -8.933  1.00  0.00    +0.229 A 
ATOM     17  N   UNL     1     -37.101 160.638 -10.158  1.00  0.00    -0.221 NA
ATOM     18  N   UNL     1     -36.820 161.128  -7.866  1.00  0.00    -0.195 NA
ATOM     19  C   UNL     1     -37.758 161.800 -10.293  1.00  0.00    +0.119 A 
ATOM     20  C   UNL     1     -37.466 162.302  -8.021  1.00  0.00    +0.138 A 
ATOM     21  C   UNL     1     -37.970 162.670  -9.255  1.00  0.00    +0.067 A 
BRANCH  20  22
ATOM     22  N   UNL     1     -37.681 163.161  -6.907  1.00  0.00    -0.329 N 
ATOM     23  C   UNL     1     -38.286 164.447  -7.274  1.00  0.00    +0.152 C 
BRANCH  22  24
ATOM     24  C   UNL     1     -38.127 162.728  -5.618  1.00  0.00    +0.044 A 
ATOM     25  C   UNL     1     -38.486 163.698  -4.613  1.00  0.00    +0.027 A 
ATOM     26  C   UNL     1     -38.193 161.332  -5.370  1.00  0.00    +0.057 A 
ATOM     27  C   UNL     1     -38.938 163.378  -3.314  1.00  0.00    +0.014 A 
ATOM     28  C   UNL     1     -38.639 160.987  -4.084  1.00  0.00    +0.095 A 
ATOM     29  C   UNL     1     -38.989 162.002  -3.123  1.00  0.00    +0.023 A 
ATOM     30  N   UNL     1     -38.818 159.776  -3.533  1.00  0.00    -0.173 NA
ATOM     31  C   UNL     1     -39.384 161.359  -1.975  1.00  0.00    +0.043 A 
ATOM     32  N   UNL     1     -39.251 160.024  -2.280  1.00  0.00    -0.272 N 
ATOM     33  C   UNL     1     -39.855 161.845  -0.655  1.00  0.00    +0.067 C 
ATOM     34  C   UNL     1     -39.535 158.905  -1.409  1.00  0.00    +0.174 C 
ENDBRANCH  22  24
ENDBRANCH  20  22
ENDBRANCH   1  16
TORSDOF 6
ENDMDL
MODEL 9
REMARK VINA RESULT:    -8.905      6.974     11.300
REMARK INTER + INTRA:         -11.878
REMARK INTER:                 -11.695
REMARK INTRA:                  -0.182
REMARK UNBOUND:                -0.110
REMARK SMILES Cc1ccc(Nc2nccc(N(C)c3ccc4c(C)n(C)nc4c3)n2)cc1S(N)(=O)=O
REMARK SMILES IDX 6 1 5 3 2 4 3 5 27 6 4 7 26 8 1 9 28 10 30 11 31 12 29 13
REMARK SMILES IDX 7 16 8 17 25 18 9 19 11 20 10 21 12 22 13 23 14 24 15 25
REMARK SMILES IDX 24 26 16 27 23 28 17 29 22 30 18 31 20 32 19 33 21 34
REMARK H PARENT 6 2 29 14 29 15
ROOT
ATOM      1  N   UNL     1     -34.402 148.948   3.012  1.00  0.00    -0.324 N 
ATOM      2  H   UNL     1     -33.576 149.459   3.286  1.00  0.00    +0.170 HD
ENDROOT
BRANCH   1   3
ATOM      3  C   UNL     1     -34.329 148.192   1.839  1.00  0.00    +0.042 A 
ATOM      4  C   UNL     1     -34.277 146.729  -0.609  1.00  0.00    -0.031 A 
ATOM      5  C   UNL     1     -33.592 146.273   0.525  1.00  0.00    +0.007 A 
ATOM      6  C   UNL     1     -35.011 147.920  -0.499  1.00  0.00    +0.087 A 
ATOM      7  C   UNL     1     -33.621 146.995   1.725  1.00  0.00    +0.026 A 
ATOM      8  C   UNL     1     -35.029 148.640   0.709  1.00  0.00    +0.048 A 
ATOM      9  C   UNL     1     -34.219 145.914  -1.870  1.00  0.00    +0.046 C 
BRANCH   6  10
ATOM     10  S   UNL     1     -35.939 148.529  -1.884  1.00  0.00    +0.238 S 
ATOM     11  O   UNL     1     -35.261 148.133  -3.095  1.00  0.00    -0.207 OA
ATOM     12  O   UNL     1     -37.342 148.283  -1.654  1.00  0.00    -0.207 OA
BRANCH  10  13
ATOM     13  N   UNL     1     -35.788 150.204  -1.812  1.00  0.00    -0.225 NA
ATOM     14  H   UNL     1     -36.699 150.626  -2.002  1.00  0.00    +0.137 HD
ATOM     15  H   UNL     1     -35.058 150.500  -2.462  1.00  0.00    +0.137 HD
ENDBRANCH  10  13
ENDBRANCH   6  10
ENDBRANCH   1   3
BRANCH   1  16
ATOM     16  C   UNL     1     -35.373 149.134   3.992  1.00  0.00    +0.229 A 
ATOM     17  N   UNL     1     -36.401 148.275   3.925  1.00  0.00    -0.221 NA
ATOM     18  N   UNL     1     -35.273 150.093   4.923  1.00  0.00    -0.195 NA
ATOM     19  C   UNL     1     -37.361 148.403   4.854  1.00  0.00    +0.119 A 
ATOM     20  C   UNL     1     -36.254 150.220   5.840  1.00  0.00    +0.138 A 
ATOM     21  C   UNL     1     -37.336 149.360   5.836  1.00  0.00    +0.067 A 
BRANCH  20  22
ATOM     22  N   UNL     1     -36.172 151.215   6.853  1.00  0.00    -0.329 N 
ATOM     23  C   UNL     1     -35.182 150.905   7.892  1.00  0.00    +0.152 C 
BRANCH  22  24
ATOM     24  C   UNL     1     -36.253 152.625   6.620  1.00  0.00    +0.044 A 
ATOM     25  C   UNL     1     -35.617 153.546   7.529  1.00  0.00    +0.027 A 
ATOM     26  C   UNL     1     -36.977 153.072   5.485  1.00  0.00    +0.057 A 
ATOM     27  C   UNL     1     -35.636 154.952   7.391  1.00  0.00    +0.014 A 
ATOM     28  C   UNL     1     -37.011 154.466   5.324  1.00  0.00    +0.095 A 
ATOM     29  C   UNL     1     -36.352 155.337   6.264  1.00  0.00    +0.023 A 
ATOM     30  N   UNL     1     -37.597 155.207   4.371  1.00  0.00    -0.173 NA
ATOM     31  C   UNL     1     -36.563 156.628   5.841  1.00  0.00    +0.043 A 
ATOM     32  N   UNL     1     -37.324 156.485   4.705  1.00  0.00    -0.272 N 
ATOM     33  C   UNL     1     -36.143 157.947   6.375  1.00  0.00    +0.067 C 
ATOM     34  C   UNL     1     -37.829 157.546   3.863  1.00  0.00    +0.174 C 
ENDBRANCH  22  24
ENDBRANCH  20  22
ENDBRANCH   1  16
TORSDOF 6
ENDMDL
MODEL 10
REMARK VINA RESULT:    -8.900      7.970     11.542
REMARK INTER + INTRA:         -11.871
REMARK INTER:                 -11.185
REMARK INTRA:                  -0.686
REMARK UNBOUND:                -0.110
REMARK SMILES Cc1ccc(Nc2nccc(N(C)c3ccc4c(C)n(C)nc4c3)n2)cc1S(N)(=O)=O
REMARK SMILES IDX 6 1 5 3 2 4 3 5 27 6 4 7 26 8 1 9 28 10 30 11 31 12 29 13
REMARK SMILES IDX 7 16 8 17 25 18 9 19 11 20 10 21 12 22 13 23 14 24 15 25
REMARK SMILES IDX 24 26 16 27 23 28 17 29 22 30 18 31 20 32 19 33 21 34
REMARK H PARENT 6 2 29 14 29 15
ROOT
ATOM      1  N   UNL     1     -36.717 148.998   2.842  1.00  0.00    -0.324 N 
ATOM      2  H   UNL     1     -37.475 149.566   2.494  1.00  0.00    +0.170 HD
ENDROOT
BRANCH   1   3
ATOM      3  C   UNL     1     -35.848 148.440   1.899  1.00  0.00    +0.042 A 
ATOM      4  C   UNL     1     -34.178 147.296  -0.110  1.00  0.00    -0.031 A 
ATOM      5  C   UNL     1     -33.728 147.451   1.208  1.00  0.00    +0.007 A 
ATOM      6  C   UNL     1     -35.488 147.702  -0.409  1.00  0.00    +0.087 A 
ATOM      7  C   UNL     1     -34.552 148.013   2.191  1.00  0.00    +0.026 A 
ATOM      8  C   UNL     1     -36.305 148.270   0.584  1.00  0.00    +0.048 A 
ATOM      9  C   UNL     1     -33.257 146.682  -1.126  1.00  0.00    +0.046 C 
BRANCH   6  10
ATOM     10  S   UNL     1     -36.136 147.491  -2.047  1.00  0.00    +0.238 S 
ATOM     11  O   UNL     1     -35.542 148.488  -2.904  1.00  0.00    -0.207 OA
ATOM     12  O   UNL     1     -36.149 146.084  -2.371  1.00  0.00    -0.207 OA
BRANCH  10  13
ATOM     13  N   UNL     1     -37.763 147.910  -1.934  1.00  0.00    -0.225 NA
ATOM     14  H   UNL     1     -37.956 148.665  -2.595  1.00  0.00    +0.137 HD
ATOM     15  H   UNL     1     -37.977 148.152  -0.965  1.00  0.00    +0.137 HD
ENDBRANCH  10  13
ENDBRANCH   6  10
ENDBRANCH   1   3
BRANCH   1  16
ATOM     16  C   UNL     1     -36.764 149.014   4.233  1.00  0.00    +0.229 A 
ATOM     17  N   UNL     1     -37.332 147.931   4.782  1.00  0.00    -0.221 NA
ATOM     18  N   UNL     1     -36.270 150.032   4.951  1.00  0.00    -0.195 NA
ATOM     19  C   UNL     1     -37.392 147.890   6.122  1.00  0.00    +0.119 A 
ATOM     20  C   UNL     1     -36.354 149.985   6.297  1.00  0.00    +0.138 A 
ATOM     21  C   UNL     1     -36.917 148.891   6.929  1.00  0.00    +0.067 A 
BRANCH  20  22
ATOM     22  N   UNL     1     -35.825 151.039   7.092  1.00  0.00    -0.329 N 
ATOM     23  C   UNL     1     -34.875 150.578   8.112  1.00  0.00    +0.152 C 
BRANCH  22  24
ATOM     24  C   UNL     1     -35.463 152.332   6.594  1.00  0.00    +0.044 A 
ATOM     25  C   UNL     1     -34.143 152.558   6.060  1.00  0.00    +0.027 A 
ATOM     26  C   UNL     1     -36.434 153.365   6.654  1.00  0.00    +0.057 A 
ATOM     27  C   UNL     1     -33.686 153.790   5.545  1.00  0.00    +0.014 A 
ATOM     28  C   UNL     1     -36.005 154.601   6.147  1.00  0.00    +0.095 A 
ATOM     29  C   UNL     1     -34.673 154.765   5.622  1.00  0.00    +0.023 A 
ATOM     30  N   UNL     1     -36.664 155.767   6.053  1.00  0.00    -0.173 NA
ATOM     31  C   UNL     1     -34.555 156.071   5.208  1.00  0.00    +0.043 A 
ATOM     32  N   UNL     1     -35.780 156.624   5.501  1.00  0.00    -0.272 N 
ATOM     33  C   UNL     1     -33.448 156.838   4.588  1.00  0.00    +0.067 C 
ATOM     34  C   UNL     1     -36.191 157.990   5.268  1.00  0.00    +0.174 C 
ENDBRANCH  22  24
ENDBRANCH  20  22
ENDBRANCH   1  16
TORSDOF 6
ENDMDL
