REMARK SMILES Cn1cc(-c2cc3c(N4CCN(c5ncc([C@@](C)(N)c6ccc(F)cc6)cn5)CC4)ncnn3c2)cn1
REMARK SMILES IDX 13 1 14 2 15 3 16 4 27 5 28 6 12 7 5 8 6 9 35 10 7 11 34 12
REMARK SMILES IDX 8 13 33 14 9 15 31 16 32 17 10 18 30 19 11 20 29 21 4 22
REMARK SMILES IDX 2 23 3 24 37 25 36 26 1 27 17 28 18 29 19 30 20 33 21 34
REMARK SMILES IDX 26 35 22 36 25 37 23 38 24 39
REMARK H PARENT 19 31 19 32
ROOT
ATOM      1  C   UNL     1      -1.967  -0.602   0.570  1.00  0.00    +0.225 A 
ATOM      2  N   UNL     1      -2.437  -0.377  -0.665  1.00  0.00    -0.221 NA
ATOM      3  C   UNL     1      -3.772  -0.258  -0.820  1.00  0.00    +0.122 A 
ATOM      4  C   UNL     1      -4.694  -0.351   0.205  1.00  0.00    +0.013 A 
ATOM      5  C   UNL     1      -4.109  -0.584   1.430  1.00  0.00    +0.122 A 
ATOM      6  N   UNL     1      -2.779  -0.708   1.632  1.00  0.00    -0.221 NA
ENDROOT
BRANCH   1   7
ATOM      7  N   UNL     1      -0.604  -0.699   0.757  1.00  0.00    -0.337 N 
ATOM      8  C   UNL     1       6.328  -0.403  -0.285  1.00  0.00    +0.005 A 
ATOM      9  C   UNL     1       4.949  -0.392   0.050  1.00  0.00    +0.042 A 
ATOM     10  C   UNL     1       6.781  -1.687  -0.080  1.00  0.00    +0.122 A 
ATOM     11  C   UNL     1       4.602  -1.678   0.423  1.00  0.00    +0.108 A 
ATOM     12  N   UNL     1       5.733  -2.440   0.376  1.00  0.00    -0.235 N 
ATOM     13  C   UNL     1       3.386  -2.306   0.866  1.00  0.00    +0.156 C 
ATOM     14  N   UNL     1       5.806  -3.727   0.740  1.00  0.00    -0.156 NA
ATOM     15  N   UNL     1       2.145  -1.684   0.927  1.00  0.00    -0.351 N 
ATOM     16  N   UNL     1       3.480  -3.551   1.245  1.00  0.00    -0.215 NA
ATOM     17  C   UNL     1       4.681  -4.207   1.163  1.00  0.00    +0.247 C 
ATOM     18  C   UNL     1       1.044  -2.324   1.673  1.00  0.00    +0.139 C 
ATOM     19  C   UNL     1       1.735  -0.656  -0.047  1.00  0.00    +0.139 C 
ATOM     20  C   UNL     1      -0.106  -1.342   1.976  1.00  0.00    +0.141 C 
ATOM     21  C   UNL     1       0.244  -0.753  -0.432  1.00  0.00    +0.141 C 
BRANCH   8  22
ATOM     22  C   UNL     1       7.088   0.749  -0.743  1.00  0.00    +0.021 A 
ATOM     23  N   UNL     1       7.762   2.735  -1.367  1.00  0.00    -0.275 N 
ATOM     24  C   UNL     1       6.667   2.046  -0.930  1.00  0.00    +0.117 A 
ATOM     25  N   UNL     1       8.867   1.975  -1.481  1.00  0.00    -0.181 NA
ATOM     26  C   UNL     1       8.452   0.762  -1.098  1.00  0.00    +0.143 A 
ATOM     27  C   UNL     1       7.829   4.137  -1.700  1.00  0.00    +0.173 C 
ENDBRANCH   8  22
ENDBRANCH   1   7
BRANCH   4  28
ATOM     28  C   UNL     1      -6.192  -0.213  -0.045  1.00  0.00    +0.067 C 
ATOM     29  C   UNL     1      -6.632  -1.476  -0.828  1.00  0.00    +0.038 C 
BRANCH  28  30
ATOM     30  N   UNL     1      -6.997  -0.240   1.188  1.00  0.00    -0.318 NA
ATOM     31  H   UNL     1      -6.742   0.533   1.796  1.00  0.00    +0.120 HD
ATOM     32  H   UNL     1      -6.861  -1.111   1.694  1.00  0.00    +0.120 HD
ENDBRANCH  28  30
BRANCH  28  33
ATOM     33  C   UNL     1      -6.522   1.113  -0.766  1.00  0.00    -0.024 A 
ATOM     34  C   UNL     1      -7.339   1.176  -1.912  1.00  0.00    +0.009 A 
ATOM     35  C   UNL     1      -6.018   2.333  -0.256  1.00  0.00    +0.009 A 
ATOM     36  C   UNL     1      -7.620   2.397  -2.532  1.00  0.00    +0.039 A 
ATOM     37  C   UNL     1      -6.299   3.552  -0.878  1.00  0.00    +0.039 A 
ATOM     38  C   UNL     1      -7.097   3.572  -2.012  1.00  0.00    +0.123 A 
ATOM     39  F   UNL     1      -7.369   4.739  -2.609  1.00  0.00    -0.207 F 
ENDBRANCH  28  33
ENDBRANCH   4  28
TORSDOF 5
