MODEL 1
REMARK VINA RESULT:    -9.876      0.000      0.000
REMARK INTER + INTRA:         -12.743
REMARK INTER:                 -12.475
REMARK INTRA:                  -0.268
REMARK UNBOUND:                -0.268
REMARK SMILES Cn1cc(-c2cc3c(N4CCN(c5ncc([C@@](C)(N)c6ccc(F)cc6)cn5)CC4)ncnn3c2)cn1
REMARK SMILES IDX 13 1 14 2 15 3 16 4 27 5 28 6 12 7 5 8 6 9 35 10 7 11 34 12
REMARK SMILES IDX 8 13 33 14 9 15 31 16 32 17 10 18 30 19 11 20 29 21 4 22
REMARK SMILES IDX 2 23 3 24 37 25 36 26 1 27 17 28 18 29 19 30 20 33 21 34
REMARK SMILES IDX 26 35 22 36 25 37 23 38 24 39
REMARK H PARENT 19 31 19 32
ROOT
ATOM      1  C   UNL     1     -38.243 161.890  -5.033  1.00  0.00    +0.225 A 
ATOM      2  N   UNL     1     -38.601 160.986  -5.956  1.00  0.00    -0.221 NA
ATOM      3  C   UNL     1     -38.327 161.261  -7.248  1.00  0.00    +0.122 A 
ATOM      4  C   UNL     1     -37.701 162.411  -7.691  1.00  0.00    +0.013 A 
ATOM      5  C   UNL     1     -37.376 163.272  -6.666  1.00  0.00    +0.122 A 
ATOM      6  N   UNL     1     -37.630 163.037  -5.360  1.00  0.00    -0.221 NA
ENDROOT
BRANCH   1   7
ATOM      7  N   UNL     1     -38.488 161.618  -3.703  1.00  0.00    -0.337 N 
ATOM      8  C   UNL     1     -38.960 158.323   2.473  1.00  0.00    +0.005 A 
ATOM      9  C   UNL     1     -38.796 159.096   1.294  1.00  0.00    +0.042 A 
ATOM     10  C   UNL     1     -40.285 158.418   2.835  1.00  0.00    +0.122 A 
ATOM     11  C   UNL     1     -40.034 159.615   0.963  1.00  0.00    +0.108 A 
ATOM     12  N   UNL     1     -40.916 159.227   1.929  1.00  0.00    -0.235 N 
ATOM     13  C   UNL     1     -40.523 160.462  -0.092  1.00  0.00    +0.156 C 
ATOM     14  N   UNL     1     -42.201 159.599   1.988  1.00  0.00    -0.156 NA
ATOM     15  N   UNL     1     -39.768 160.906  -1.171  1.00  0.00    -0.351 N 
ATOM     16  N   UNL     1     -41.769 160.839  -0.004  1.00  0.00    -0.215 NA
ATOM     17  C   UNL     1     -42.553 160.390   1.027  1.00  0.00    +0.247 C 
ATOM     18  C   UNL     1     -40.280 162.001  -2.018  1.00  0.00    +0.139 C 
ATOM     19  C   UNL     1     -38.706 160.082  -1.776  1.00  0.00    +0.139 C 
ATOM     20  C   UNL     1     -39.176 162.628  -2.894  1.00  0.00    +0.141 C 
ATOM     21  C   UNL     1     -38.641 160.218  -3.312  1.00  0.00    +0.141 C 
BRANCH   8  22
ATOM     22  C   UNL     1     -37.900 157.591   3.149  1.00  0.00    +0.021 A 
ATOM     23  N   UNL     1     -36.052 156.963   4.138  1.00  0.00    -0.275 N 
ATOM     24  C   UNL     1     -36.662 158.036   3.553  1.00  0.00    +0.117 A 
ATOM     25  N   UNL     1     -36.807 155.849   4.140  1.00  0.00    -0.181 NA
ATOM     26  C   UNL     1     -37.936 156.236   3.536  1.00  0.00    +0.143 A 
ATOM     27  C   UNL     1     -34.734 156.927   4.723  1.00  0.00    +0.173 C 
ENDBRANCH   8  22
ENDBRANCH   1   7
BRANCH   4  28
ATOM     28  C   UNL     1     -37.428 162.659  -9.171  1.00  0.00    +0.067 C 
ATOM     29  C   UNL     1     -36.154 161.852  -9.532  1.00  0.00    +0.038 C 
BRANCH  28  30
ATOM     30  N   UNL     1     -38.473 162.120 -10.058  1.00  0.00    -0.318 NA
ATOM     31  H   UNL     1     -38.512 161.108  -9.987  1.00  0.00    +0.120 HD
ATOM     32  H   UNL     1     -38.296 162.373 -11.027  1.00  0.00    +0.120 HD
ENDBRANCH  28  30
BRANCH  28  33
ATOM     33  C   UNL     1     -37.316 164.169  -9.477  1.00  0.00    -0.024 A 
ATOM     34  C   UNL     1     -38.147 165.134  -8.874  1.00  0.00    +0.009 A 
ATOM     35  C   UNL     1     -36.325 164.631 -10.375  1.00  0.00    +0.009 A 
ATOM     36  C   UNL     1     -38.010 166.493  -9.172  1.00  0.00    +0.039 A 
ATOM     37  C   UNL     1     -36.190 165.990 -10.672  1.00  0.00    +0.039 A 
ATOM     38  C   UNL     1     -37.036 166.908 -10.068  1.00  0.00    +0.123 A 
ATOM     39  F   UNL     1     -36.908 168.210 -10.350  1.00  0.00    -0.207 F 
ENDBRANCH  28  33
ENDBRANCH   4  28
TORSDOF 5
ENDMDL
MODEL 2
REMARK VINA RESULT:    -9.696      2.280      3.291
REMARK INTER + INTRA:         -12.515
REMARK INTER:                 -12.301
REMARK INTRA:                  -0.214
REMARK UNBOUND:                -0.268
REMARK SMILES Cn1cc(-c2cc3c(N4CCN(c5ncc([C@@](C)(N)c6ccc(F)cc6)cn5)CC4)ncnn3c2)cn1
REMARK SMILES IDX 13 1 14 2 15 3 16 4 27 5 28 6 12 7 5 8 6 9 35 10 7 11 34 12
REMARK SMILES IDX 8 13 33 14 9 15 31 16 32 17 10 18 30 19 11 20 29 21 4 22
REMARK SMILES IDX 2 23 3 24 37 25 36 26 1 27 17 28 18 29 19 30 20 33 21 34
REMARK SMILES IDX 26 35 22 36 25 37 23 38 24 39
REMARK H PARENT 19 31 19 32
ROOT
ATOM      1  C   UNL     1     -37.982 161.726  -5.162  1.00  0.00    +0.225 A 
ATOM      2  N   UNL     1     -38.571 160.968  -6.098  1.00  0.00    -0.221 NA
ATOM      3  C   UNL     1     -38.238 161.186  -7.388  1.00  0.00    +0.122 A 
ATOM      4  C   UNL     1     -37.330 162.136  -7.815  1.00  0.00    +0.013 A 
ATOM      5  C   UNL     1     -36.785 162.859  -6.778  1.00  0.00    +0.122 A 
ATOM      6  N   UNL     1     -37.088 162.674  -5.474  1.00  0.00    -0.221 NA
ENDROOT
BRANCH   1   7
ATOM      7  N   UNL     1     -38.287 161.502  -3.836  1.00  0.00    -0.337 N 
ATOM      8  C   UNL     1     -39.123 158.406   2.405  1.00  0.00    +0.005 A 
ATOM      9  C   UNL     1     -38.883 159.138   1.212  1.00  0.00    +0.042 A 
ATOM     10  C   UNL     1     -40.455 158.570   2.715  1.00  0.00    +0.122 A 
ATOM     11  C   UNL     1     -40.085 159.701   0.822  1.00  0.00    +0.108 A 
ATOM     12  N   UNL     1     -41.017 159.379   1.765  1.00  0.00    -0.235 N 
ATOM     13  C   UNL     1     -40.498 160.538  -0.273  1.00  0.00    +0.156 C 
ATOM     14  N   UNL     1     -42.286 159.808   1.767  1.00  0.00    -0.156 NA
ATOM     15  N   UNL     1     -39.686 160.918  -1.334  1.00  0.00    -0.351 N 
ATOM     16  N   UNL     1     -41.728 160.972  -0.240  1.00  0.00    -0.215 NA
ATOM     17  C   UNL     1     -42.568 160.586   0.773  1.00  0.00    +0.247 C 
ATOM     18  C   UNL     1     -40.118 162.010  -2.229  1.00  0.00    +0.139 C 
ATOM     19  C   UNL     1     -38.641 160.032  -1.878  1.00  0.00    +0.139 C 
ATOM     20  C   UNL     1     -38.957 162.563  -3.080  1.00  0.00    +0.141 C 
ATOM     21  C   UNL     1     -38.515 160.122  -3.413  1.00  0.00    +0.141 C 
BRANCH   8  22
ATOM     22  C   UNL     1     -38.122 157.649   3.139  1.00  0.00    +0.021 A 
ATOM     23  N   UNL     1     -37.027 156.176   4.330  1.00  0.00    -0.275 N 
ATOM     24  C   UNL     1     -38.262 156.461   3.820  1.00  0.00    +0.117 A 
ATOM     25  N   UNL     1     -36.094 157.098   4.031  1.00  0.00    -0.181 NA
ATOM     26  C   UNL     1     -36.766 157.997   3.302  1.00  0.00    +0.143 A 
ATOM     27  C   UNL     1     -36.660 155.028   5.123  1.00  0.00    +0.173 C 
ENDBRANCH   8  22
ENDBRANCH   1   7
BRANCH   4  28
ATOM     28  C   UNL     1     -37.006 162.332  -9.293  1.00  0.00    +0.067 C 
ATOM     29  C   UNL     1     -37.976 163.419  -9.822  1.00  0.00    +0.038 C 
BRANCH  28  30
ATOM     30  N   UNL     1     -35.662 162.884  -9.530  1.00  0.00    -0.318 NA
ATOM     31  H   UNL     1     -35.346 162.660 -10.470  1.00  0.00    +0.120 HD
ATOM     32  H   UNL     1     -34.991 162.510  -8.864  1.00  0.00    +0.120 HD
ENDBRANCH  28  30
BRANCH  28  33
ATOM     33  C   UNL     1     -37.085 160.997 -10.067  1.00  0.00    -0.024 A 
ATOM     34  C   UNL     1     -37.538 160.913 -11.399  1.00  0.00    +0.009 A 
ATOM     35  C   UNL     1     -36.663 159.799  -9.445  1.00  0.00    +0.009 A 
ATOM     36  C   UNL     1     -37.588 159.687 -12.068  1.00  0.00    +0.039 A 
ATOM     37  C   UNL     1     -36.715 158.574 -10.115  1.00  0.00    +0.039 A 
ATOM     38  C   UNL     1     -37.179 158.530 -11.422  1.00  0.00    +0.123 A 
ATOM     39  F   UNL     1     -37.228 157.358 -12.067  1.00  0.00    -0.207 F 
ENDBRANCH  28  33
ENDBRANCH   4  28
TORSDOF 5
ENDMDL
MODEL 3
REMARK VINA RESULT:    -9.292     11.852     15.391
REMARK INTER + INTRA:         -12.005
REMARK INTER:                 -11.261
REMARK INTRA:                  -0.745
REMARK UNBOUND:                -0.268
REMARK SMILES Cn1cc(-c2cc3c(N4CCN(c5ncc([C@@](C)(N)c6ccc(F)cc6)cn5)CC4)ncnn3c2)cn1
REMARK SMILES IDX 13 1 14 2 15 3 16 4 27 5 28 6 12 7 5 8 6 9 35 10 7 11 34 12
REMARK SMILES IDX 8 13 33 14 9 15 31 16 32 17 10 18 30 19 11 20 29 21 4 22
REMARK SMILES IDX 2 23 3 24 37 25 36 26 1 27 17 28 18 29 19 30 20 33 21 34
REMARK SMILES IDX 26 35 22 36 25 37 23 38 24 39
REMARK H PARENT 19 31 19 32
ROOT
ATOM      1  C   UNL     1     -39.560 147.029   1.844  1.00  0.00    +0.225 A 
ATOM      2  N   UNL     1     -38.597 146.523   1.060  1.00  0.00    -0.221 NA
ATOM      3  C   UNL     1     -38.969 145.715   0.046  1.00  0.00    +0.122 A 
ATOM      4  C   UNL     1     -40.275 145.370  -0.246  1.00  0.00    +0.013 A 
ATOM      5  C   UNL     1     -41.184 145.940   0.617  1.00  0.00    +0.122 A 
ATOM      6  N   UNL     1     -40.857 146.755   1.643  1.00  0.00    -0.221 NA
ENDROOT
BRANCH   1   7
ATOM      7  N   UNL     1     -39.206 147.880   2.870  1.00  0.00    -0.337 N 
ATOM      8  C   UNL     1     -36.545 153.295   6.451  1.00  0.00    +0.005 A 
ATOM      9  C   UNL     1     -37.208 152.225   5.795  1.00  0.00    +0.042 A 
ATOM     10  C   UNL     1     -35.707 152.733   7.388  1.00  0.00    +0.122 A 
ATOM     11  C   UNL     1     -36.731 151.046   6.338  1.00  0.00    +0.108 A 
ATOM     12  N   UNL     1     -35.852 151.374   7.328  1.00  0.00    -0.235 N 
ATOM     13  C   UNL     1     -37.001 149.651   6.113  1.00  0.00    +0.156 C 
ATOM     14  N   UNL     1     -35.239 150.494   8.131  1.00  0.00    -0.156 NA
ATOM     15  N   UNL     1     -37.832 149.151   5.118  1.00  0.00    -0.351 N 
ATOM     16  N   UNL     1     -36.420 148.809   6.922  1.00  0.00    -0.215 NA
ATOM     17  C   UNL     1     -35.564 149.265   7.892  1.00  0.00    +0.247 C 
ATOM     18  C   UNL     1     -38.268 147.742   5.171  1.00  0.00    +0.139 C 
ATOM     19  C   UNL     1     -37.958 149.802   3.801  1.00  0.00    +0.139 C 
ATOM     20  C   UNL     1     -39.474 147.467   4.250  1.00  0.00    +0.141 C 
ATOM     21  C   UNL     1     -38.088 148.794   2.641  1.00  0.00    +0.141 C 
BRANCH   8  22
ATOM     22  C   UNL     1     -36.748 154.707   6.167  1.00  0.00    +0.021 A 
ATOM     23  N   UNL     1     -36.742 156.895   6.173  1.00  0.00    -0.275 N 
ATOM     24  C   UNL     1     -36.265 155.804   6.843  1.00  0.00    +0.117 A 
ATOM     25  N   UNL     1     -37.506 156.583   5.109  1.00  0.00    -0.181 NA
ATOM     26  C   UNL     1     -37.506 155.245   5.108  1.00  0.00    +0.143 A 
ATOM     27  C   UNL     1     -36.508 158.281   6.495  1.00  0.00    +0.173 C 
ENDBRANCH   8  22
ENDBRANCH   1   7
BRANCH   4  28
ATOM     28  C   UNL     1     -40.622 144.443  -1.407  1.00  0.00    +0.067 C 
ATOM     29  C   UNL     1     -39.374 143.559  -1.661  1.00  0.00    +0.038 C 
BRANCH  28  30
ATOM     30  N   UNL     1     -41.697 143.488  -1.093  1.00  0.00    -0.318 NA
ATOM     31  H   UNL     1     -42.594 143.846  -1.408  1.00  0.00    +0.120 HD
ATOM     32  H   UNL     1     -41.750 143.312  -0.093  1.00  0.00    +0.120 HD
ENDBRANCH  28  30
BRANCH  28  33
ATOM     33  C   UNL     1     -41.081 145.243  -2.647  1.00  0.00    -0.024 A 
ATOM     34  C   UNL     1     -40.502 146.471  -3.020  1.00  0.00    +0.009 A 
ATOM     35  C   UNL     1     -42.106 144.726  -3.474  1.00  0.00    +0.009 A 
ATOM     36  C   UNL     1     -40.941 147.161  -4.154  1.00  0.00    +0.039 A 
ATOM     37  C   UNL     1     -42.544 145.418  -4.606  1.00  0.00    +0.039 A 
ATOM     38  C   UNL     1     -41.958 146.631  -4.934  1.00  0.00    +0.123 A 
ATOM     39  F   UNL     1     -42.375 147.295  -6.019  1.00  0.00    -0.207 F 
ENDBRANCH  28  33
ENDBRANCH   4  28
TORSDOF 5
ENDMDL
MODEL 4
REMARK VINA RESULT:    -9.131     13.040     17.058
REMARK INTER + INTRA:         -11.801
REMARK INTER:                 -11.197
REMARK INTRA:                  -0.604
REMARK UNBOUND:                -0.268
REMARK SMILES Cn1cc(-c2cc3c(N4CCN(c5ncc([C@@](C)(N)c6ccc(F)cc6)cn5)CC4)ncnn3c2)cn1
REMARK SMILES IDX 13 1 14 2 15 3 16 4 27 5 28 6 12 7 5 8 6 9 35 10 7 11 34 12
REMARK SMILES IDX 8 13 33 14 9 15 31 16 32 17 10 18 30 19 11 20 29 21 4 22
REMARK SMILES IDX 2 23 3 24 37 25 36 26 1 27 17 28 18 29 19 30 20 33 21 34
REMARK SMILES IDX 26 35 22 36 25 37 23 38 24 39
REMARK H PARENT 19 31 19 32
ROOT
ATOM      1  C   UNL     1     -37.373 148.420   3.201  1.00  0.00    +0.225 A 
ATOM      2  N   UNL     1     -36.060 148.309   3.447  1.00  0.00    -0.221 NA
ATOM      3  C   UNL     1     -35.523 149.116   4.386  1.00  0.00    +0.122 A 
ATOM      4  C   UNL     1     -36.231 150.052   5.115  1.00  0.00    +0.013 A 
ATOM      5  C   UNL     1     -37.568 150.087   4.786  1.00  0.00    +0.122 A 
ATOM      6  N   UNL     1     -38.148 149.297   3.856  1.00  0.00    -0.221 NA
ENDROOT
BRANCH   1   7
ATOM      7  N   UNL     1     -37.949 147.585   2.266  1.00  0.00    -0.337 N 
ATOM      8  C   UNL     1     -41.851 145.170  -3.041  1.00  0.00    +0.005 A 
ATOM      9  C   UNL     1     -40.948 145.595  -2.031  1.00  0.00    +0.042 A 
ATOM     10  C   UNL     1     -42.606 144.153  -2.502  1.00  0.00    +0.122 A 
ATOM     11  C   UNL     1     -41.203 144.838  -0.901  1.00  0.00    +0.108 A 
ATOM     12  N   UNL     1     -42.184 143.944  -1.217  1.00  0.00    -0.235 N 
ATOM     13  C   UNL     1     -40.642 144.782   0.422  1.00  0.00    +0.156 C 
ATOM     14  N   UNL     1     -42.647 142.993  -0.396  1.00  0.00    -0.156 NA
ATOM     15  N   UNL     1     -39.674 145.649   0.914  1.00  0.00    -0.351 N 
ATOM     16  N   UNL     1     -41.083 143.832   1.200  1.00  0.00    -0.215 NA
ATOM     17  C   UNL     1     -42.066 142.983   0.760  1.00  0.00    +0.247 C 
ATOM     18  C   UNL     1     -38.963 145.315   2.164  1.00  0.00    +0.139 C 
ATOM     19  C   UNL     1     -39.611 147.065   0.510  1.00  0.00    +0.139 C 
ATOM     20  C   UNL     1     -37.678 146.147   2.346  1.00  0.00    +0.141 C 
ATOM     21  C   UNL     1     -39.215 148.004   1.669  1.00  0.00    +0.141 C 
BRANCH   8  22
ATOM     22  C   UNL     1     -41.925 145.722  -4.384  1.00  0.00    +0.021 A 
ATOM     23  N   UNL     1     -41.807 146.084  -6.539  1.00  0.00    -0.275 N 
ATOM     24  C   UNL     1     -41.513 145.164  -5.574  1.00  0.00    +0.117 A 
ATOM     25  N   UNL     1     -42.379 147.204  -6.060  1.00  0.00    -0.181 NA
ATOM     26  C   UNL     1     -42.450 146.979  -4.743  1.00  0.00    +0.143 A 
ATOM     27  C   UNL     1     -41.567 145.961  -7.956  1.00  0.00    +0.173 C 
ENDBRANCH   8  22
ENDBRANCH   1   7
BRANCH   4  28
ATOM     28  C   UNL     1     -35.556 150.938   6.158  1.00  0.00    +0.067 C 
ATOM     29  C   UNL     1     -35.762 150.248   7.530  1.00  0.00    +0.038 C 
BRANCH  28  30
ATOM     30  N   UNL     1     -34.094 151.021   5.998  1.00  0.00    -0.318 NA
ATOM     31  H   UNL     1     -33.728 150.153   5.618  1.00  0.00    +0.120 HD
ATOM     32  H   UNL     1     -33.640 151.204   6.889  1.00  0.00    +0.120 HD
ENDBRANCH  28  30
BRANCH  28  33
ATOM     33  C   UNL     1     -36.095 152.384   6.101  1.00  0.00    -0.024 A 
ATOM     34  C   UNL     1     -37.296 152.777   6.724  1.00  0.00    +0.009 A 
ATOM     35  C   UNL     1     -35.355 153.383   5.424  1.00  0.00    +0.009 A 
ATOM     36  C   UNL     1     -37.747 154.098   6.656  1.00  0.00    +0.039 A 
ATOM     37  C   UNL     1     -35.809 154.702   5.355  1.00  0.00    +0.039 A 
ATOM     38  C   UNL     1     -37.002 155.047   5.971  1.00  0.00    +0.123 A 
ATOM     39  F   UNL     1     -37.438 156.312   5.908  1.00  0.00    -0.207 F 
ENDBRANCH  28  33
ENDBRANCH   4  28
TORSDOF 5
ENDMDL
MODEL 5
REMARK VINA RESULT:    -8.927     13.489     17.356
REMARK INTER + INTRA:         -11.543
REMARK INTER:                 -10.754
REMARK INTRA:                  -0.789
REMARK UNBOUND:                -0.268
REMARK SMILES Cn1cc(-c2cc3c(N4CCN(c5ncc([C@@](C)(N)c6ccc(F)cc6)cn5)CC4)ncnn3c2)cn1
REMARK SMILES IDX 13 1 14 2 15 3 16 4 27 5 28 6 12 7 5 8 6 9 35 10 7 11 34 12
REMARK SMILES IDX 8 13 33 14 9 15 31 16 32 17 10 18 30 19 11 20 29 21 4 22
REMARK SMILES IDX 2 23 3 24 37 25 36 26 1 27 17 28 18 29 19 30 20 33 21 34
REMARK SMILES IDX 26 35 22 36 25 37 23 38 24 39
REMARK H PARENT 19 31 19 32
ROOT
ATOM      1  C   UNL     1     -37.932 148.009   4.073  1.00  0.00    +0.225 A 
ATOM      2  N   UNL     1     -36.814 148.542   3.558  1.00  0.00    -0.221 NA
ATOM      3  C   UNL     1     -36.086 149.360   4.345  1.00  0.00    +0.122 A 
ATOM      4  C   UNL     1     -36.408 149.691   5.648  1.00  0.00    +0.013 A 
ATOM      5  C   UNL     1     -37.572 149.094   6.078  1.00  0.00    +0.122 A 
ATOM      6  N   UNL     1     -38.331 148.267   5.326  1.00  0.00    -0.221 NA
ENDROOT
BRANCH   1   7
ATOM      7  N   UNL     1     -38.678 147.147   3.296  1.00  0.00    -0.337 N 
ATOM      8  C   UNL     1     -42.518 144.479  -1.934  1.00  0.00    +0.005 A 
ATOM      9  C   UNL     1     -41.658 144.901  -0.888  1.00  0.00    +0.042 A 
ATOM     10  C   UNL     1     -43.689 144.057  -1.346  1.00  0.00    +0.122 A 
ATOM     11  C   UNL     1     -42.345 144.746   0.303  1.00  0.00    +0.108 A 
ATOM     12  N   UNL     1     -43.559 144.197   0.009  1.00  0.00    -0.235 N 
ATOM     13  C   UNL     1     -42.032 144.985   1.686  1.00  0.00    +0.156 C 
ATOM     14  N   UNL     1     -44.476 143.835   0.916  1.00  0.00    -0.156 NA
ATOM     15  N   UNL     1     -40.862 145.577   2.147  1.00  0.00    -0.351 N 
ATOM     16  N   UNL     1     -42.922 144.599   2.558  1.00  0.00    -0.215 NA
ATOM     17  C   UNL     1     -44.104 144.045   2.137  1.00  0.00    +0.247 C 
ATOM     18  C   UNL     1     -40.520 145.497   3.581  1.00  0.00    +0.139 C 
ATOM     19  C   UNL     1     -40.167 146.634   1.389  1.00  0.00    +0.139 C 
ATOM     20  C   UNL     1     -39.040 145.839   3.849  1.00  0.00    +0.141 C 
ATOM     21  C   UNL     1     -39.569 147.730   2.296  1.00  0.00    +0.141 C 
BRANCH   8  22
ATOM     22  C   UNL     1     -42.185 144.492  -3.350  1.00  0.00    +0.021 A 
ATOM     23  N   UNL     1     -41.827 145.029  -5.440  1.00  0.00    -0.275 N 
ATOM     24  C   UNL     1     -42.247 145.536  -4.244  1.00  0.00    +0.117 A 
ATOM     25  N   UNL     1     -41.498 143.725  -5.387  1.00  0.00    -0.181 NA
ATOM     26  C   UNL     1     -41.717 143.400  -4.108  1.00  0.00    +0.143 A 
ATOM     27  C   UNL     1     -41.712 145.738  -6.692  1.00  0.00    +0.173 C 
ENDBRANCH   8  22
ENDBRANCH   1   7
BRANCH   4  28
ATOM     28  C   UNL     1     -35.540 150.631   6.478  1.00  0.00    +0.067 C 
ATOM     29  C   UNL     1     -35.619 150.133   7.943  1.00  0.00    +0.038 C 
BRANCH  28  30
ATOM     30  N   UNL     1     -34.109 150.560   6.137  1.00  0.00    -0.318 NA
ATOM     31  H   UNL     1     -33.966 149.971   5.323  1.00  0.00    +0.120 HD
ATOM     32  H   UNL     1     -33.567 150.184   6.911  1.00  0.00    +0.120 HD
ENDBRANCH  28  30
BRANCH  28  33
ATOM     33  C   UNL     1     -35.972 152.103   6.296  1.00  0.00    -0.024 A 
ATOM     34  C   UNL     1     -37.203 152.601   6.765  1.00  0.00    +0.009 A 
ATOM     35  C   UNL     1     -35.098 153.017   5.659  1.00  0.00    +0.009 A 
ATOM     36  C   UNL     1     -37.554 153.942   6.587  1.00  0.00    +0.039 A 
ATOM     37  C   UNL     1     -35.452 154.356   5.481  1.00  0.00    +0.039 A 
ATOM     38  C   UNL     1     -36.678 154.806   5.946  1.00  0.00    +0.123 A 
ATOM     39  F   UNL     1     -37.019 156.090   5.777  1.00  0.00    -0.207 F 
ENDBRANCH  28  33
ENDBRANCH   4  28
TORSDOF 5
ENDMDL
MODEL 6
REMARK VINA RESULT:    -8.645     11.855     16.151
REMARK INTER + INTRA:         -11.188
REMARK INTER:                 -10.347
REMARK INTRA:                  -0.841
REMARK UNBOUND:                -0.268
REMARK SMILES Cn1cc(-c2cc3c(N4CCN(c5ncc([C@@](C)(N)c6ccc(F)cc6)cn5)CC4)ncnn3c2)cn1
REMARK SMILES IDX 13 1 14 2 15 3 16 4 27 5 28 6 12 7 5 8 6 9 35 10 7 11 34 12
REMARK SMILES IDX 8 13 33 14 9 15 31 16 32 17 10 18 30 19 11 20 29 21 4 22
REMARK SMILES IDX 2 23 3 24 37 25 36 26 1 27 17 28 18 29 19 30 20 33 21 34
REMARK SMILES IDX 26 35 22 36 25 37 23 38 24 39
REMARK H PARENT 19 31 19 32
ROOT
ATOM      1  C   UNL     1     -37.967 150.158   4.154  1.00  0.00    +0.225 A 
ATOM      2  N   UNL     1     -38.594 151.331   3.982  1.00  0.00    -0.221 NA
ATOM      3  C   UNL     1     -38.228 152.363   4.770  1.00  0.00    +0.122 A 
ATOM      4  C   UNL     1     -37.250 152.301   5.744  1.00  0.00    +0.013 A 
ATOM      5  C   UNL     1     -36.671 151.055   5.841  1.00  0.00    +0.122 A 
ATOM      6  N   UNL     1     -37.004 149.995   5.073  1.00  0.00    -0.221 NA
ENDROOT
BRANCH   1   7
ATOM      7  N   UNL     1     -38.305 149.096   3.342  1.00  0.00    -0.337 N 
ATOM      8  C   UNL     1     -41.241 145.205  -1.705  1.00  0.00    +0.005 A 
ATOM      9  C   UNL     1     -40.519 145.941  -0.729  1.00  0.00    +0.042 A 
ATOM     10  C   UNL     1     -41.856 144.164  -1.048  1.00  0.00    +0.122 A 
ATOM     11  C   UNL     1     -40.742 145.337   0.495  1.00  0.00    +0.108 A 
ATOM     12  N   UNL     1     -41.522 144.239   0.277  1.00  0.00    -0.235 N 
ATOM     13  C   UNL     1     -40.302 145.593   1.841  1.00  0.00    +0.156 C 
ATOM     14  N   UNL     1     -41.888 143.360   1.219  1.00  0.00    -0.156 NA
ATOM     15  N   UNL     1     -39.544 146.688   2.236  1.00  0.00    -0.351 N 
ATOM     16  N   UNL     1     -40.642 144.711   2.740  1.00  0.00    -0.215 NA
ATOM     17  C   UNL     1     -41.421 143.638   2.393  1.00  0.00    +0.247 C 
ATOM     18  C   UNL     1     -38.902 146.690   3.565  1.00  0.00    +0.139 C 
ATOM     19  C   UNL     1     -39.689 148.011   1.602  1.00  0.00    +0.139 C 
ATOM     20  C   UNL     1     -37.800 147.763   3.681  1.00  0.00    +0.141 C 
ATOM     21  C   UNL     1     -39.565 149.176   2.606  1.00  0.00    +0.141 C 
BRANCH   8  22
ATOM     22  C   UNL     1     -41.286 145.517  -3.124  1.00  0.00    +0.021 A 
ATOM     23  N   UNL     1     -41.588 145.502  -5.292  1.00  0.00    -0.275 N 
ATOM     24  C   UNL     1     -41.782 144.760  -4.162  1.00  0.00    +0.117 A 
ATOM     25  N   UNL     1     -40.997 146.689  -5.062  1.00  0.00    -0.181 NA
ATOM     26  C   UNL     1     -40.815 146.696  -3.736  1.00  0.00    +0.143 A 
ATOM     27  C   UNL     1     -41.945 145.138  -6.641  1.00  0.00    +0.173 C 
ENDBRANCH   8  22
ENDBRANCH   1   7
BRANCH   4  28
ATOM     28  C   UNL     1     -36.893 153.509   6.604  1.00  0.00    +0.067 C 
ATOM     29  C   UNL     1     -38.230 154.185   7.002  1.00  0.00    +0.038 C 
BRANCH  28  30
ATOM     30  N   UNL     1     -36.262 153.150   7.885  1.00  0.00    -0.318 NA
ATOM     31  H   UNL     1     -36.011 153.986   8.405  1.00  0.00    +0.120 HD
ATOM     32  H   UNL     1     -35.423 152.595   7.737  1.00  0.00    +0.120 HD
ENDBRANCH  28  30
BRANCH  28  33
ATOM     33  C   UNL     1     -35.912 154.451   5.870  1.00  0.00    -0.024 A 
ATOM     34  C   UNL     1     -36.312 155.677   5.304  1.00  0.00    +0.009 A 
ATOM     35  C   UNL     1     -34.544 154.103   5.775  1.00  0.00    +0.009 A 
ATOM     36  C   UNL     1     -35.393 156.506   4.654  1.00  0.00    +0.039 A 
ATOM     37  C   UNL     1     -33.627 154.932   5.124  1.00  0.00    +0.039 A 
ATOM     38  C   UNL     1     -34.061 156.126   4.568  1.00  0.00    +0.123 A 
ATOM     39  F   UNL     1     -33.184 156.922   3.944  1.00  0.00    -0.207 F 
ENDBRANCH  28  33
ENDBRANCH   4  28
TORSDOF 5
ENDMDL
MODEL 7
REMARK VINA RESULT:    -8.534     11.251     15.570
REMARK INTER + INTRA:         -11.047
REMARK INTER:                 -10.320
REMARK INTRA:                  -0.727
REMARK UNBOUND:                -0.268
REMARK SMILES Cn1cc(-c2cc3c(N4CCN(c5ncc([C@@](C)(N)c6ccc(F)cc6)cn5)CC4)ncnn3c2)cn1
REMARK SMILES IDX 13 1 14 2 15 3 16 4 27 5 28 6 12 7 5 8 6 9 35 10 7 11 34 12
REMARK SMILES IDX 8 13 33 14 9 15 31 16 32 17 10 18 30 19 11 20 29 21 4 22
REMARK SMILES IDX 2 23 3 24 37 25 36 26 1 27 17 28 18 29 19 30 20 33 21 34
REMARK SMILES IDX 26 35 22 36 25 37 23 38 24 39
REMARK H PARENT 19 31 19 32
ROOT
ATOM      1  C   UNL     1     -37.551 151.964   5.489  1.00  0.00    +0.225 A 
ATOM      2  N   UNL     1     -37.846 153.181   5.009  1.00  0.00    -0.221 NA
ATOM      3  C   UNL     1     -36.877 154.120   5.033  1.00  0.00    +0.122 A 
ATOM      4  C   UNL     1     -35.598 153.919   5.516  1.00  0.00    +0.013 A 
ATOM      5  C   UNL     1     -35.400 152.639   5.985  1.00  0.00    +0.122 A 
ATOM      6  N   UNL     1     -36.339 151.668   5.980  1.00  0.00    -0.221 NA
ENDROOT
BRANCH   1   7
ATOM      7  N   UNL     1     -38.516 150.980   5.449  1.00  0.00    -0.337 N 
ATOM      8  C   UNL     1     -42.475 145.424   7.087  1.00  0.00    +0.005 A 
ATOM      9  C   UNL     1     -41.798 146.621   6.737  1.00  0.00    +0.042 A 
ATOM     10  C   UNL     1     -42.374 144.576   6.007  1.00  0.00    +0.122 A 
ATOM     11  C   UNL     1     -41.284 146.451   5.464  1.00  0.00    +0.108 A 
ATOM     12  N   UNL     1     -41.676 145.221   5.023  1.00  0.00    -0.235 N 
ATOM     13  C   UNL     1     -40.519 147.276   4.567  1.00  0.00    +0.156 C 
ATOM     14  N   UNL     1     -41.428 144.730   3.801  1.00  0.00    -0.156 NA
ATOM     15  N   UNL     1     -40.007 148.529   4.879  1.00  0.00    -0.351 N 
ATOM     16  N   UNL     1     -40.312 146.796   3.372  1.00  0.00    -0.215 NA
ATOM     17  C   UNL     1     -40.771 145.547   3.042  1.00  0.00    +0.247 C 
ATOM     18  C   UNL     1     -39.507 149.402   3.799  1.00  0.00    +0.139 C 
ATOM     19  C   UNL     1     -39.539 148.870   6.235  1.00  0.00    +0.139 C 
ATOM     20  C   UNL     1     -39.356 150.868   4.253  1.00  0.00    +0.141 C 
ATOM     21  C   UNL     1     -38.284 149.767   6.230  1.00  0.00    +0.141 C 
BRANCH   8  22
ATOM     22  C   UNL     1     -43.148 145.182   8.352  1.00  0.00    +0.021 A 
ATOM     23  N   UNL     1     -44.596 144.965   9.979  1.00  0.00    -0.275 N 
ATOM     24  C   UNL     1     -44.482 145.316   8.664  1.00  0.00    +0.117 A 
ATOM     25  N   UNL     1     -43.427 144.615  10.546  1.00  0.00    -0.181 NA
ATOM     26  C   UNL     1     -42.545 144.747   9.550  1.00  0.00    +0.143 A 
ATOM     27  C   UNL     1     -45.803 144.940  10.769  1.00  0.00    +0.173 C 
ENDBRANCH   8  22
ENDBRANCH   1   7
BRANCH   4  28
ATOM     28  C   UNL     1     -34.555 155.031   5.518  1.00  0.00    +0.067 C 
ATOM     29  C   UNL     1     -33.467 154.620   6.543  1.00  0.00    +0.038 C 
BRANCH  28  30
ATOM     30  N   UNL     1     -33.833 155.160   4.241  1.00  0.00    -0.318 NA
ATOM     31  H   UNL     1     -34.280 154.598   3.522  1.00  0.00    +0.120 HD
ATOM     32  H   UNL     1     -32.867 154.858   4.335  1.00  0.00    +0.120 HD
ENDBRANCH  28  30
BRANCH  28  33
ATOM     33  C   UNL     1     -35.197 156.405   5.810  1.00  0.00    -0.024 A 
ATOM     34  C   UNL     1     -35.384 157.387   4.817  1.00  0.00    +0.009 A 
ATOM     35  C   UNL     1     -35.653 156.703   7.116  1.00  0.00    +0.009 A 
ATOM     36  C   UNL     1     -35.976 158.616   5.119  1.00  0.00    +0.039 A 
ATOM     37  C   UNL     1     -36.244 157.933   7.416  1.00  0.00    +0.039 A 
ATOM     38  C   UNL     1     -36.399 158.879   6.414  1.00  0.00    +0.123 A 
ATOM     39  F   UNL     1     -36.966 160.058   6.699  1.00  0.00    -0.207 F 
ENDBRANCH  28  33
ENDBRANCH   4  28
TORSDOF 5
ENDMDL
MODEL 8
REMARK VINA RESULT:    -8.226      9.700     16.842
REMARK INTER + INTRA:         -10.659
REMARK INTER:                  -9.949
REMARK INTRA:                  -0.709
REMARK UNBOUND:                -0.268
REMARK SMILES Cn1cc(-c2cc3c(N4CCN(c5ncc([C@@](C)(N)c6ccc(F)cc6)cn5)CC4)ncnn3c2)cn1
REMARK SMILES IDX 13 1 14 2 15 3 16 4 27 5 28 6 12 7 5 8 6 9 35 10 7 11 34 12
REMARK SMILES IDX 8 13 33 14 9 15 31 16 32 17 10 18 30 19 11 20 29 21 4 22
REMARK SMILES IDX 2 23 3 24 37 25 36 26 1 27 17 28 18 29 19 30 20 33 21 34
REMARK SMILES IDX 26 35 22 36 25 37 23 38 24 39
REMARK H PARENT 19 31 19 32
ROOT
ATOM      1  C   UNL     1     -40.142 147.426   4.831  1.00  0.00    +0.225 A 
ATOM      2  N   UNL     1     -40.001 146.993   3.570  1.00  0.00    -0.221 NA
ATOM      3  C   UNL     1     -40.678 145.885   3.204  1.00  0.00    +0.122 A 
ATOM      4  C   UNL     1     -41.510 145.161   4.036  1.00  0.00    +0.013 A 
ATOM      5  C   UNL     1     -41.585 145.688   5.307  1.00  0.00    +0.122 A 
ATOM      6  N   UNL     1     -40.927 146.795   5.716  1.00  0.00    -0.221 NA
ENDROOT
BRANCH   1   7
ATOM      7  N   UNL     1     -39.482 148.573   5.220  1.00  0.00    -0.337 N 
ATOM      8  C   UNL     1     -36.410 154.880   5.126  1.00  0.00    +0.005 A 
ATOM      9  C   UNL     1     -37.107 153.651   5.259  1.00  0.00    +0.042 A 
ATOM     10  C   UNL     1     -35.130 154.667   5.588  1.00  0.00    +0.122 A 
ATOM     11  C   UNL     1     -36.220 152.723   5.774  1.00  0.00    +0.108 A 
ATOM     12  N   UNL     1     -35.039 153.366   6.004  1.00  0.00    -0.235 N 
ATOM     13  C   UNL     1     -36.311 151.333   6.134  1.00  0.00    +0.156 C 
ATOM     14  N   UNL     1     -33.960 152.809   6.569  1.00  0.00    -0.156 NA
ATOM     15  N   UNL     1     -37.423 150.527   5.923  1.00  0.00    -0.351 N 
ATOM     16  N   UNL     1     -35.262 150.813   6.710  1.00  0.00    -0.215 NA
ATOM     17  C   UNL     1     -34.134 151.569   6.899  1.00  0.00    +0.247 C 
ATOM     18  C   UNL     1     -37.512 149.217   6.598  1.00  0.00    +0.139 C 
ATOM     19  C   UNL     1     -38.305 150.698   4.754  1.00  0.00    +0.139 C 
ATOM     20  C   UNL     1     -38.945 148.647   6.581  1.00  0.00    +0.141 C 
ATOM     21  C   UNL     1     -38.814 149.358   4.184  1.00  0.00    +0.141 C 
BRANCH   8  22
ATOM     22  C   UNL     1     -36.977 156.114   4.607  1.00  0.00    +0.021 A 
ATOM     23  N   UNL     1     -38.075 157.636   3.483  1.00  0.00    -0.275 N 
ATOM     24  C   UNL     1     -37.854 156.291   3.561  1.00  0.00    +0.117 A 
ATOM     25  N   UNL     1     -37.399 158.348   4.403  1.00  0.00    -0.181 NA
ATOM     26  C   UNL     1     -36.730 157.415   5.089  1.00  0.00    +0.143 A 
ATOM     27  C   UNL     1     -38.929 158.322   2.543  1.00  0.00    +0.173 C 
ENDBRANCH   8  22
ENDBRANCH   1   7
BRANCH   4  28
ATOM     28  C   UNL     1     -42.240 143.911   3.556  1.00  0.00    +0.067 C 
ATOM     29  C   UNL     1     -41.271 142.720   3.767  1.00  0.00    +0.038 C 
BRANCH  28  30
ATOM     30  N   UNL     1     -43.424 143.576   4.365  1.00  0.00    -0.318 NA
ATOM     31  H   UNL     1     -43.163 142.984   5.148  1.00  0.00    +0.120 HD
ATOM     32  H   UNL     1     -44.121 143.090   3.807  1.00  0.00    +0.120 HD
ENDBRANCH  28  30
BRANCH  28  33
ATOM     33  C   UNL     1     -42.724 144.068   2.097  1.00  0.00    -0.024 A 
ATOM     34  C   UNL     1     -43.893 144.775   1.753  1.00  0.00    +0.009 A 
ATOM     35  C   UNL     1     -41.962 143.513   1.042  1.00  0.00    +0.009 A 
ATOM     36  C   UNL     1     -44.294 144.901   0.420  1.00  0.00    +0.039 A 
ATOM     37  C   UNL     1     -42.366 143.639  -0.290  1.00  0.00    +0.039 A 
ATOM     38  C   UNL     1     -43.530 144.331  -0.588  1.00  0.00    +0.123 A 
ATOM     39  F   UNL     1     -43.918 144.455  -1.863  1.00  0.00    -0.207 F 
ENDBRANCH  28  33
ENDBRANCH   4  28
TORSDOF 5
ENDMDL
MODEL 9
REMARK VINA RESULT:    -8.202      8.691     16.111
REMARK INTER + INTRA:         -10.628
REMARK INTER:                  -9.828
REMARK INTRA:                  -0.799
REMARK UNBOUND:                -0.268
REMARK SMILES Cn1cc(-c2cc3c(N4CCN(c5ncc([C@@](C)(N)c6ccc(F)cc6)cn5)CC4)ncnn3c2)cn1
REMARK SMILES IDX 13 1 14 2 15 3 16 4 27 5 28 6 12 7 5 8 6 9 35 10 7 11 34 12
REMARK SMILES IDX 8 13 33 14 9 15 31 16 32 17 10 18 30 19 11 20 29 21 4 22
REMARK SMILES IDX 2 23 3 24 37 25 36 26 1 27 17 28 18 29 19 30 20 33 21 34
REMARK SMILES IDX 26 35 22 36 25 37 23 38 24 39
REMARK H PARENT 19 31 19 32
ROOT
ATOM      1  C   UNL     1     -39.494 149.196   4.733  1.00  0.00    +0.225 A 
ATOM      2  N   UNL     1     -38.764 148.428   3.912  1.00  0.00    -0.221 NA
ATOM      3  C   UNL     1     -39.105 147.127   3.797  1.00  0.00    +0.122 A 
ATOM      4  C   UNL     1     -40.156 146.528   4.465  1.00  0.00    +0.013 A 
ATOM      5  C   UNL     1     -40.838 147.402   5.282  1.00  0.00    +0.122 A 
ATOM      6  N   UNL     1     -40.534 148.710   5.426  1.00  0.00    -0.221 NA
ENDROOT
BRANCH   1   7
ATOM      7  N   UNL     1     -39.181 150.535   4.846  1.00  0.00    -0.337 N 
ATOM      8  C   UNL     1     -37.730 157.219   3.281  1.00  0.00    +0.005 A 
ATOM      9  C   UNL     1     -38.122 155.918   3.691  1.00  0.00    +0.042 A 
ATOM     10  C   UNL     1     -36.502 157.467   3.853  1.00  0.00    +0.122 A 
ATOM     11  C   UNL     1     -37.106 155.407   4.478  1.00  0.00    +0.108 A 
ATOM     12  N   UNL     1     -36.151 156.374   4.598  1.00  0.00    -0.235 N 
ATOM     13  C   UNL     1     -36.902 154.169   5.182  1.00  0.00    +0.156 C 
ATOM     14  N   UNL     1     -35.046 156.271   5.348  1.00  0.00    -0.156 NA
ATOM     15  N   UNL     1     -37.753 153.072   5.128  1.00  0.00    -0.351 N 
ATOM     16  N   UNL     1     -35.836 154.096   5.932  1.00  0.00    -0.215 NA
ATOM     17  C   UNL     1     -34.955 155.146   5.980  1.00  0.00    +0.247 C 
ATOM     18  C   UNL     1     -37.605 151.984   6.115  1.00  0.00    +0.139 C 
ATOM     19  C   UNL     1     -38.503 152.722   3.908  1.00  0.00    +0.139 C 
ATOM     20  C   UNL     1     -38.846 151.070   6.168  1.00  0.00    +0.141 C 
ATOM     21  C   UNL     1     -38.601 151.199   3.680  1.00  0.00    +0.141 C 
BRANCH   8  22
ATOM     22  C   UNL     1     -38.511 158.099   2.427  1.00  0.00    +0.021 A 
ATOM     23  N   UNL     1     -39.219 159.479   0.883  1.00  0.00    -0.275 N 
ATOM     24  C   UNL     1     -38.109 158.816   1.323  1.00  0.00    +0.117 A 
ATOM     25  N   UNL     1     -40.316 159.245   1.627  1.00  0.00    -0.181 NA
ATOM     26  C   UNL     1     -39.881 158.401   2.569  1.00  0.00    +0.143 A 
ATOM     27  C   UNL     1     -39.308 160.363  -0.253  1.00  0.00    +0.173 C 
ENDBRANCH   8  22
ENDBRANCH   1   7
BRANCH   4  28
ATOM     28  C   UNL     1     -40.480 145.048   4.292  1.00  0.00    +0.067 C 
ATOM     29  C   UNL     1     -39.188 144.366   3.773  1.00  0.00    +0.038 C 
BRANCH  28  30
ATOM     30  N   UNL     1     -40.780 144.361   5.559  1.00  0.00    -0.318 NA
ATOM     31  H   UNL     1     -41.487 143.645   5.417  1.00  0.00    +0.120 HD
ATOM     32  H   UNL     1     -41.116 145.016   6.259  1.00  0.00    +0.120 HD
ENDBRANCH  28  30
BRANCH  28  33
ATOM     33  C   UNL     1     -41.704 144.844   3.372  1.00  0.00    -0.024 A 
ATOM     34  C   UNL     1     -41.810 145.439   2.099  1.00  0.00    +0.009 A 
ATOM     35  C   UNL     1     -42.765 144.006   3.791  1.00  0.00    +0.009 A 
ATOM     36  C   UNL     1     -42.932 145.224   1.293  1.00  0.00    +0.039 A 
ATOM     37  C   UNL     1     -43.886 143.795   2.984  1.00  0.00    +0.039 A 
ATOM     38  C   UNL     1     -43.959 144.408   1.742  1.00  0.00    +0.123 A 
ATOM     39  F   UNL     1     -45.031 144.205   0.967  1.00  0.00    -0.207 F 
ENDBRANCH  28  33
ENDBRANCH   4  28
TORSDOF 5
ENDMDL
MODEL 10
REMARK VINA RESULT:    -8.094     12.083     16.902
REMARK INTER + INTRA:         -10.492
REMARK INTER:                  -9.722
REMARK INTRA:                  -0.770
REMARK UNBOUND:                -0.268
REMARK SMILES Cn1cc(-c2cc3c(N4CCN(c5ncc([C@@](C)(N)c6ccc(F)cc6)cn5)CC4)ncnn3c2)cn1
REMARK SMILES IDX 13 1 14 2 15 3 16 4 27 5 28 6 12 7 5 8 6 9 35 10 7 11 34 12
REMARK SMILES IDX 8 13 33 14 9 15 31 16 32 17 10 18 30 19 11 20 29 21 4 22
REMARK SMILES IDX 2 23 3 24 37 25 36 26 1 27 17 28 18 29 19 30 20 33 21 34
REMARK SMILES IDX 26 35 22 36 25 37 23 38 24 39
REMARK H PARENT 19 31 19 32
ROOT
ATOM      1  C   UNL     1     -40.873 146.664   3.360  1.00  0.00    +0.225 A 
ATOM      2  N   UNL     1     -41.247 145.473   3.848  1.00  0.00    -0.221 NA
ATOM      3  C   UNL     1     -41.943 144.649   3.037  1.00  0.00    +0.122 A 
ATOM      4  C   UNL     1     -42.299 144.944   1.735  1.00  0.00    +0.013 A 
ATOM      5  C   UNL     1     -41.869 146.189   1.332  1.00  0.00    +0.122 A 
ATOM      6  N   UNL     1     -41.170 147.045   2.108  1.00  0.00    -0.221 NA
ENDROOT
BRANCH   1   7
ATOM      7  N   UNL     1     -40.137 147.512   4.161  1.00  0.00    -0.337 N 
ATOM      8  C   UNL     1     -35.507 152.309   6.345  1.00  0.00    +0.005 A 
ATOM      9  C   UNL     1     -36.544 151.413   5.977  1.00  0.00    +0.042 A 
ATOM     10  C   UNL     1     -34.739 151.668   7.292  1.00  0.00    +0.122 A 
ATOM     11  C   UNL     1     -36.357 150.245   6.693  1.00  0.00    +0.108 A 
ATOM     12  N   UNL     1     -35.283 150.432   7.514  1.00  0.00    -0.235 N 
ATOM     13  C   UNL     1     -37.053 148.988   6.773  1.00  0.00    +0.156 C 
ATOM     14  N   UNL     1     -34.841 149.543   8.413  1.00  0.00    -0.156 NA
ATOM     15  N   UNL     1     -38.133 148.625   5.977  1.00  0.00    -0.351 N 
ATOM     16  N   UNL     1     -36.629 148.145   7.674  1.00  0.00    -0.215 NA
ATOM     17  C   UNL     1     -35.543 148.456   8.451  1.00  0.00    +0.247 C 
ATOM     18  C   UNL     1     -38.948 147.451   6.347  1.00  0.00    +0.139 C 
ATOM     19  C   UNL     1     -38.258 149.066   4.576  1.00  0.00    +0.139 C 
ATOM     20  C   UNL     1     -40.305 147.428   5.614  1.00  0.00    +0.141 C 
ATOM     21  C   UNL     1     -38.848 147.979   3.654  1.00  0.00    +0.141 C 
BRANCH   8  22
ATOM     22  C   UNL     1     -35.328 153.649   5.810  1.00  0.00    +0.021 A 
ATOM     23  N   UNL     1     -34.547 155.511   4.967  1.00  0.00    -0.275 N 
ATOM     24  C   UNL     1     -34.176 154.260   5.370  1.00  0.00    +0.117 A 
ATOM     25  N   UNL     1     -35.861 155.758   5.117  1.00  0.00    -0.181 NA
ATOM     26  C   UNL     1     -36.336 154.618   5.631  1.00  0.00    +0.143 A 
ATOM     27  C   UNL     1     -33.691 156.537   4.423  1.00  0.00    +0.173 C 
ENDBRANCH   8  22
ENDBRANCH   1   7
BRANCH   4  28
ATOM     28  C   UNL     1     -43.094 143.965   0.877  1.00  0.00    +0.067 C 
ATOM     29  C   UNL     1     -43.099 142.612   1.632  1.00  0.00    +0.038 C 
BRANCH  28  30
ATOM     30  N   UNL     1     -44.516 144.323   0.744  1.00  0.00    -0.318 NA
ATOM     31  H   UNL     1     -44.812 144.252  -0.225  1.00  0.00    +0.120 HD
ATOM     32  H   UNL     1     -44.686 145.271   1.068  1.00  0.00    +0.120 HD
ENDBRANCH  28  30
BRANCH  28  33
ATOM     33  C   UNL     1     -42.519 143.877  -0.554  1.00  0.00    -0.024 A 
ATOM     34  C   UNL     1     -43.276 144.188  -1.701  1.00  0.00    +0.009 A 
ATOM     35  C   UNL     1     -41.169 143.499  -0.746  1.00  0.00    +0.009 A 
ATOM     36  C   UNL     1     -42.717 144.102  -2.980  1.00  0.00    +0.039 A 
ATOM     37  C   UNL     1     -40.613 143.413  -2.025  1.00  0.00    +0.039 A 
ATOM     38  C   UNL     1     -41.394 143.714  -3.131  1.00  0.00    +0.123 A 
ATOM     39  F   UNL     1     -40.863 143.634  -4.357  1.00  0.00    -0.207 F 
ENDBRANCH  28  33
ENDBRANCH   4  28
TORSDOF 5
ENDMDL
