MODEL 1
REMARK VINA RESULT:    -8.184      0.000      0.000
REMARK INTER + INTRA:         -12.045
REMARK INTER:                 -11.055
REMARK INTRA:                  -0.990
REMARK UNBOUND:                -0.990
REMARK SMILES COc1cc2nccc(Oc3ccc(NC(=O)NC4CC4)c(Cl)c3)c2cc1C(N)=O
REMARK SMILES IDX 10 1 9 2 3 3 4 4 27 5 5 6 26 7 6 8 25 9 7 10 8 11 2 12 1 13
REMARK SMILES IDX 28 14 29 15 30 16 11 19 12 20 24 21 13 22 22 23 14 24 23 25
REMARK SMILES IDX 15 26 16 27 17 28 18 29 19 32 20 33 21 34
REMARK H PARENT 29 17 29 18 15 30 18 31
ROOT
ATOM      1  O   UNL     1      -9.507   1.768 -12.823  1.00  0.00    -0.457 OA
ENDROOT
BRANCH   1   2
ATOM      2  C   UNL     1     -10.809   2.201 -12.963  1.00  0.00    +0.138 A 
ATOM      3  C   UNL     1     -13.837   0.799 -10.405  1.00  0.00    +0.133 A 
ATOM      4  C   UNL     1     -14.100   1.738 -11.407  1.00  0.00    +0.076 A 
ATOM      5  C   UNL     1     -12.553   0.281 -10.252  1.00  0.00    +0.082 A 
ATOM      6  C   UNL     1     -13.100   2.208 -12.245  1.00  0.00    +0.078 A 
ATOM      7  C   UNL     1     -11.529   0.741 -11.087  1.00  0.00    +0.032 A 
ATOM      8  N   UNL     1     -13.412   3.123 -13.179  1.00  0.00    -0.256 NA
ATOM      9  C   UNL     1     -11.792   1.705 -12.086  1.00  0.00    +0.044 A 
ATOM     10  C   UNL     1     -12.431   3.589 -13.981  1.00  0.00    +0.115 A 
ATOM     11  C   UNL     1     -11.121   3.170 -13.910  1.00  0.00    +0.068 A 
BRANCH   3  12
ATOM     12  O   UNL     1     -14.886   0.322  -9.663  1.00  0.00    -0.496 OA
ATOM     13  C   UNL     1     -15.197   1.223  -8.598  1.00  0.00    +0.278 C 
ENDBRANCH   3  12
BRANCH   5  14
ATOM     14  C   UNL     1     -12.242  -0.718  -9.203  1.00  0.00    +0.252 C 
ATOM     15  N   UNL     1     -12.972  -1.876  -9.242  1.00  0.00    -0.365 N 
ATOM     16  O   UNL     1     -11.379  -0.536  -8.356  1.00  0.00    -0.269 OA
ATOM     17  H   UNL     1     -13.835  -1.941  -9.765  1.00  0.00    +0.159 HD
ATOM     18  H   UNL     1     -12.854  -2.498  -8.452  1.00  0.00    +0.159 HD
ENDBRANCH   5  14
ENDBRANCH   1   2
BRANCH   1  19
ATOM     19  C   UNL     1      -8.771   1.590 -13.975  1.00  0.00    +0.129 A 
ATOM     20  C   UNL     1      -9.029   0.590 -14.914  1.00  0.00    +0.049 A 
ATOM     21  C   UNL     1      -7.678   2.436 -14.144  1.00  0.00    +0.069 A 
ATOM     22  C   UNL     1      -8.208   0.454 -16.040  1.00  0.00    +0.031 A 
ATOM     23  C   UNL     1      -6.863   2.298 -15.270  1.00  0.00    +0.068 A 
ATOM     24  C   UNL     1      -7.115   1.302 -16.232  1.00  0.00    +0.061 A 
ATOM     25 Cl   UNL     1      -5.528   3.387 -15.444  1.00  0.00    -0.082 Cl
BRANCH  24  26
ATOM     26  N   UNL     1      -6.256   1.215 -17.353  1.00  0.00    -0.307 N 
ATOM     27  C   UNL     1      -5.023   0.604 -17.434  1.00  0.00    +0.319 C 
ATOM     28  O   UNL     1      -4.414   0.077 -16.511  1.00  0.00    -0.248 OA
ATOM     29  N   UNL     1      -4.522   0.674 -18.724  1.00  0.00    -0.335 N 
ATOM     30  H   UNL     1      -6.522   1.790 -18.143  1.00  0.00    +0.171 HD
ATOM     31  H   UNL     1      -5.201   0.784 -19.464  1.00  0.00    +0.165 HD
BRANCH  29  32
ATOM     32  C   UNL     1      -3.271   0.071 -19.074  1.00  0.00    +0.084 C 
ATOM     33  C   UNL     1      -2.570   0.449 -20.349  1.00  0.00    +0.027 C 
ATOM     34  C   UNL     1      -1.997   0.870 -19.027  1.00  0.00    +0.027 C 
ENDBRANCH  29  32
ENDBRANCH  24  26
ENDBRANCH   1  19
TORSDOF 6
ENDMDL
MODEL 2
REMARK VINA RESULT:    -8.093      3.105     10.358
REMARK INTER + INTRA:         -11.921
REMARK INTER:                 -12.083
REMARK INTRA:                   0.162
REMARK UNBOUND:                -0.990
REMARK SMILES COc1cc2nccc(Oc3ccc(NC(=O)NC4CC4)c(Cl)c3)c2cc1C(N)=O
REMARK SMILES IDX 10 1 9 2 3 3 4 4 27 5 5 6 26 7 6 8 25 9 7 10 8 11 2 12 1 13
REMARK SMILES IDX 28 14 29 15 30 16 11 19 12 20 24 21 13 22 22 23 14 24 23 25
REMARK SMILES IDX 15 26 16 27 17 28 18 29 19 32 20 33 21 34
REMARK H PARENT 29 17 29 18 15 30 18 31
ROOT
ATOM      1  O   UNL     1     -10.683   1.796 -12.505  1.00  0.00    -0.457 OA
ENDROOT
BRANCH   1   2
ATOM      2  C   UNL     1     -10.897   2.766 -13.462  1.00  0.00    +0.138 A 
ATOM      3  C   UNL     1      -8.510   2.952 -16.918  1.00  0.00    +0.133 A 
ATOM      4  C   UNL     1      -9.564   3.846 -16.706  1.00  0.00    +0.076 A 
ATOM      5  C   UNL     1      -8.207   1.987 -15.959  1.00  0.00    +0.082 A 
ATOM      6  C   UNL     1     -10.358   3.779 -15.570  1.00  0.00    +0.078 A 
ATOM      7  C   UNL     1      -8.995   1.902 -14.806  1.00  0.00    +0.032 A 
ATOM      8  N   UNL     1     -11.368   4.656 -15.432  1.00  0.00    -0.256 NA
ATOM      9  C   UNL     1     -10.073   2.793 -14.603  1.00  0.00    +0.044 A 
ATOM     10  C   UNL     1     -12.147   4.576 -14.332  1.00  0.00    +0.115 A 
ATOM     11  C   UNL     1     -11.961   3.651 -13.328  1.00  0.00    +0.068 A 
BRANCH   3  12
ATOM     12  O   UNL     1      -7.719   3.123 -18.024  1.00  0.00    -0.496 OA
ATOM     13  C   UNL     1      -7.019   4.366 -17.952  1.00  0.00    +0.278 C 
ENDBRANCH   3  12
BRANCH   5  14
ATOM     14  C   UNL     1      -7.095   1.028 -16.152  1.00  0.00    +0.252 C 
ATOM     15  N   UNL     1      -7.164   0.248 -17.275  1.00  0.00    -0.365 N 
ATOM     16  O   UNL     1      -6.159   0.941 -15.370  1.00  0.00    -0.269 OA
ATOM     17  H   UNL     1      -8.028   0.133 -17.787  1.00  0.00    +0.159 HD
ATOM     18  H   UNL     1      -6.478  -0.495 -17.338  1.00  0.00    +0.159 HD
ENDBRANCH   5  14
ENDBRANCH   1   2
BRANCH   1  19
ATOM     19  C   UNL     1     -11.776   1.365 -11.784  1.00  0.00    +0.129 A 
ATOM     20  C   UNL     1     -13.014   2.007 -11.794  1.00  0.00    +0.049 A 
ATOM     21  C   UNL     1     -11.574   0.258 -10.963  1.00  0.00    +0.069 A 
ATOM     22  C   UNL     1     -14.064   1.525 -11.002  1.00  0.00    +0.031 A 
ATOM     23  C   UNL     1     -12.624  -0.221 -10.176  1.00  0.00    +0.068 A 
ATOM     24  C   UNL     1     -13.883   0.409 -10.182  1.00  0.00    +0.061 A 
ATOM     25 Cl   UNL     1     -12.328  -1.611  -9.187  1.00  0.00    -0.082 Cl
BRANCH  24  26
ATOM     26  N   UNL     1     -14.907  -0.126  -9.367  1.00  0.00    -0.307 N 
ATOM     27  C   UNL     1     -15.588   0.494  -8.341  1.00  0.00    +0.319 C 
ATOM     28  O   UNL     1     -15.372   1.617  -7.903  1.00  0.00    -0.248 OA
ATOM     29  N   UNL     1     -16.570  -0.339  -7.826  1.00  0.00    -0.335 N 
ATOM     30  H   UNL     1     -15.056  -1.123  -9.462  1.00  0.00    +0.171 HD
ATOM     31  H   UNL     1     -16.916  -1.058  -8.445  1.00  0.00    +0.165 HD
BRANCH  29  32
ATOM     32  C   UNL     1     -17.444   0.095  -6.779  1.00  0.00    +0.084 C 
ATOM     33  C   UNL     1     -18.692   0.872  -7.096  1.00  0.00    +0.027 C 
ATOM     34  C   UNL     1     -18.796  -0.541  -6.598  1.00  0.00    +0.027 C 
ENDBRANCH  29  32
ENDBRANCH  24  26
ENDBRANCH   1  19
TORSDOF 6
ENDMDL
MODEL 3
REMARK VINA RESULT:    -7.907      3.758     10.628
REMARK INTER + INTRA:         -11.670
REMARK INTER:                 -11.413
REMARK INTRA:                  -0.257
REMARK UNBOUND:                -0.990
REMARK SMILES COc1cc2nccc(Oc3ccc(NC(=O)NC4CC4)c(Cl)c3)c2cc1C(N)=O
REMARK SMILES IDX 10 1 9 2 3 3 4 4 27 5 5 6 26 7 6 8 25 9 7 10 8 11 2 12 1 13
REMARK SMILES IDX 28 14 29 15 30 16 11 19 12 20 24 21 13 22 22 23 14 24 23 25
REMARK SMILES IDX 15 26 16 27 17 28 18 29 19 32 20 33 21 34
REMARK H PARENT 29 17 29 18 15 30 18 31
ROOT
ATOM      1  O   UNL     1     -11.487   2.654 -12.550  1.00  0.00    -0.457 OA
ENDROOT
BRANCH   1   2
ATOM      2  C   UNL     1     -10.674   1.957 -13.420  1.00  0.00    +0.138 A 
ATOM      3  C   UNL     1      -9.239   3.751 -16.941  1.00  0.00    +0.133 A 
ATOM      4  C   UNL     1      -8.892   2.443 -16.591  1.00  0.00    +0.076 A 
ATOM      5  C   UNL     1     -10.104   4.485 -16.132  1.00  0.00    +0.082 A 
ATOM      6  C   UNL     1      -9.358   1.853 -15.425  1.00  0.00    +0.078 A 
ATOM      7  C   UNL     1     -10.586   3.910 -14.951  1.00  0.00    +0.032 A 
ATOM      8  N   UNL     1      -8.975   0.598 -15.134  1.00  0.00    -0.256 NA
ATOM      9  C   UNL     1     -10.217   2.595 -14.588  1.00  0.00    +0.044 A 
ATOM     10  C   UNL     1      -9.418   0.035 -13.989  1.00  0.00    +0.115 A 
ATOM     11  C   UNL     1     -10.257   0.670 -13.100  1.00  0.00    +0.068 A 
BRANCH   3  12
ATOM     12  O   UNL     1      -8.805   4.244 -18.144  1.00  0.00    -0.496 OA
ATOM     13  C   UNL     1      -7.378   4.278 -18.186  1.00  0.00    +0.278 C 
ENDBRANCH   3  12
BRANCH   5  14
ATOM     14  C   UNL     1     -10.494   5.872 -16.478  1.00  0.00    +0.252 C 
ATOM     15  N   UNL     1      -9.465   6.739 -16.729  1.00  0.00    -0.365 N 
ATOM     16  O   UNL     1     -11.662   6.228 -16.550  1.00  0.00    -0.269 OA
ATOM     17  H   UNL     1      -8.518   6.536 -16.440  1.00  0.00    +0.159 HD
ATOM     18  H   UNL     1      -9.724   7.712 -16.835  1.00  0.00    +0.159 HD
ENDBRANCH   5  14
ENDBRANCH   1   2
BRANCH   1  19
ATOM     19  C   UNL     1     -12.387   1.925 -11.803  1.00  0.00    +0.129 A 
ATOM     20  C   UNL     1     -13.760   2.174 -11.781  1.00  0.00    +0.049 A 
ATOM     21  C   UNL     1     -11.849   0.933 -10.987  1.00  0.00    +0.069 A 
ATOM     22  C   UNL     1     -14.601   1.411 -10.963  1.00  0.00    +0.031 A 
ATOM     23  C   UNL     1     -12.692   0.172 -10.174  1.00  0.00    +0.068 A 
ATOM     24  C   UNL     1     -14.080   0.403 -10.148  1.00  0.00    +0.061 A 
ATOM     25 Cl   UNL     1     -11.976  -1.063  -9.192  1.00  0.00    -0.082 Cl
BRANCH  24  26
ATOM     26  N   UNL     1     -14.882  -0.404  -9.307  1.00  0.00    -0.307 N 
ATOM     27  C   UNL     1     -15.539  -0.037  -8.152  1.00  0.00    +0.319 C 
ATOM     28  O   UNL     1     -15.486   1.057  -7.605  1.00  0.00    -0.248 OA
ATOM     29  N   UNL     1     -16.280  -1.095  -7.648  1.00  0.00    -0.335 N 
ATOM     30  H   UNL     1     -14.852  -1.396  -9.507  1.00  0.00    +0.171 HD
ATOM     31  H   UNL     1     -16.556  -1.804  -8.312  1.00  0.00    +0.165 HD
BRANCH  29  32
ATOM     32  C   UNL     1     -17.088  -0.951  -6.476  1.00  0.00    +0.084 C 
ATOM     33  C   UNL     1     -18.530  -0.540  -6.586  1.00  0.00    +0.027 C 
ATOM     34  C   UNL     1     -18.181  -1.940  -6.173  1.00  0.00    +0.027 C 
ENDBRANCH  29  32
ENDBRANCH  24  26
ENDBRANCH   1  19
TORSDOF 6
ENDMDL
MODEL 4
REMARK VINA RESULT:    -7.905      3.695      4.909
REMARK INTER + INTRA:         -11.668
REMARK INTER:                 -11.077
REMARK INTRA:                  -0.591
REMARK UNBOUND:                -0.990
REMARK SMILES COc1cc2nccc(Oc3ccc(NC(=O)NC4CC4)c(Cl)c3)c2cc1C(N)=O
REMARK SMILES IDX 10 1 9 2 3 3 4 4 27 5 5 6 26 7 6 8 25 9 7 10 8 11 2 12 1 13
REMARK SMILES IDX 28 14 29 15 30 16 11 19 12 20 24 21 13 22 22 23 14 24 23 25
REMARK SMILES IDX 15 26 16 27 17 28 18 29 19 32 20 33 21 34
REMARK H PARENT 29 17 29 18 15 30 18 31
ROOT
ATOM      1  O   UNL     1      -8.420   2.726 -17.336  1.00  0.00    -0.457 OA
ENDROOT
BRANCH   1   2
ATOM      2  C   UNL     1      -9.315   3.634 -16.811  1.00  0.00    +0.138 A 
ATOM      3  C   UNL     1     -11.580   2.708 -13.393  1.00  0.00    +0.133 A 
ATOM      4  C   UNL     1     -11.680   3.951 -14.024  1.00  0.00    +0.076 A 
ATOM      5  C   UNL     1     -10.736   1.727 -13.911  1.00  0.00    +0.082 A 
ATOM      6  C   UNL     1     -10.926   4.261 -15.146  1.00  0.00    +0.078 A 
ATOM      7  C   UNL     1      -9.967   2.018 -15.043  1.00  0.00    +0.032 A 
ATOM      8  N   UNL     1     -11.055   5.480 -15.698  1.00  0.00    -0.256 NA
ATOM      9  C   UNL     1     -10.054   3.283 -15.666  1.00  0.00    +0.044 A 
ATOM     10  C   UNL     1     -10.306   5.782 -16.781  1.00  0.00    +0.115 A 
ATOM     11  C   UNL     1      -9.421   4.905 -17.368  1.00  0.00    +0.068 A 
BRANCH   3  12
ATOM     12  O   UNL     1     -12.409   2.441 -12.335  1.00  0.00    -0.496 OA
ATOM     13  C   UNL     1     -13.742   2.864 -12.625  1.00  0.00    +0.278 C 
ENDBRANCH   3  12
BRANCH   5  14
ATOM     14  C   UNL     1     -10.610   0.398 -13.268  1.00  0.00    +0.252 C 
ATOM     15  N   UNL     1     -10.563   0.396 -11.900  1.00  0.00    -0.365 N 
ATOM     16  O   UNL     1     -10.566  -0.642 -13.910  1.00  0.00    -0.269 OA
ATOM     17  H   UNL     1     -10.354   1.235 -11.376  1.00  0.00    +0.159 HD
ATOM     18  H   UNL     1     -10.345  -0.493 -11.468  1.00  0.00    +0.159 HD
ENDBRANCH   5  14
ENDBRANCH   1   2
BRANCH   1  19
ATOM     19  C   UNL     1      -7.463   2.215 -16.486  1.00  0.00    +0.129 A 
ATOM     20  C   UNL     1      -6.658   3.001 -15.661  1.00  0.00    +0.049 A 
ATOM     21  C   UNL     1      -7.275   0.835 -16.528  1.00  0.00    +0.069 A 
ATOM     22  C   UNL     1      -5.682   2.405 -14.854  1.00  0.00    +0.031 A 
ATOM     23  C   UNL     1      -6.301   0.244 -15.720  1.00  0.00    +0.068 A 
ATOM     24  C   UNL     1      -5.488   1.021 -14.875  1.00  0.00    +0.061 A 
ATOM     25 Cl   UNL     1      -6.119  -1.477 -15.796  1.00  0.00    -0.082 Cl
BRANCH  24  26
ATOM     26  N   UNL     1      -4.523   0.363 -14.077  1.00  0.00    -0.307 N 
ATOM     27  C   UNL     1      -4.714  -0.293 -12.880  1.00  0.00    +0.319 C 
ATOM     28  O   UNL     1      -5.763  -0.364 -12.253  1.00  0.00    -0.248 OA
ATOM     29  N   UNL     1      -3.533  -0.870 -12.439  1.00  0.00    -0.335 N 
ATOM     30  H   UNL     1      -3.561   0.516 -14.353  1.00  0.00    +0.171 HD
ATOM     31  H   UNL     1      -2.843  -1.076 -13.148  1.00  0.00    +0.165 HD
BRANCH  29  32
ATOM     32  C   UNL     1      -3.483  -1.647 -11.238  1.00  0.00    +0.084 C 
ATOM     33  C   UNL     1      -3.717  -3.131 -11.276  1.00  0.00    +0.027 C 
ATOM     34  C   UNL     1      -2.344  -2.597 -10.988  1.00  0.00    +0.027 C 
ENDBRANCH  29  32
ENDBRANCH  24  26
ENDBRANCH   1  19
TORSDOF 6
ENDMDL
MODEL 5
REMARK VINA RESULT:    -7.823      5.579      9.464
REMARK INTER + INTRA:         -11.557
REMARK INTER:                 -10.681
REMARK INTRA:                  -0.876
REMARK UNBOUND:                -0.990
REMARK SMILES COc1cc2nccc(Oc3ccc(NC(=O)NC4CC4)c(Cl)c3)c2cc1C(N)=O
REMARK SMILES IDX 10 1 9 2 3 3 4 4 27 5 5 6 26 7 6 8 25 9 7 10 8 11 2 12 1 13
REMARK SMILES IDX 28 14 29 15 30 16 11 19 12 20 24 21 13 22 22 23 14 24 23 25
REMARK SMILES IDX 15 26 16 27 17 28 18 29 19 32 20 33 21 34
REMARK H PARENT 29 17 29 18 15 30 18 31
ROOT
ATOM      1  O   UNL     1      -5.493   2.108 -14.364  1.00  0.00    -0.457 OA
ENDROOT
BRANCH   1   2
ATOM      2  C   UNL     1      -5.485   0.729 -14.400  1.00  0.00    +0.138 A 
ATOM      3  C   UNL     1      -2.893  -1.348 -16.978  1.00  0.00    +0.133 A 
ATOM      4  C   UNL     1      -3.756  -2.021 -16.108  1.00  0.00    +0.076 A 
ATOM      5  C   UNL     1      -2.898   0.044 -17.029  1.00  0.00    +0.082 A 
ATOM      6  C   UNL     1      -4.605  -1.336 -15.250  1.00  0.00    +0.078 A 
ATOM      7  C   UNL     1      -3.746   0.755 -16.173  1.00  0.00    +0.032 A 
ATOM      8  N   UNL     1      -5.399  -2.040 -14.424  1.00  0.00    -0.256 NA
ATOM      9  C   UNL     1      -4.602   0.073 -15.279  1.00  0.00    +0.044 A 
ATOM     10  C   UNL     1      -6.211  -1.368 -13.580  1.00  0.00    +0.115 A 
ATOM     11  C   UNL     1      -6.287   0.007 -13.523  1.00  0.00    +0.068 A 
BRANCH   3  12
ATOM     12  O   UNL     1      -2.137  -2.086 -17.851  1.00  0.00    -0.496 OA
ATOM     13  C   UNL     1      -1.070  -2.739 -17.160  1.00  0.00    +0.278 C 
ENDBRANCH   3  12
BRANCH   5  14
ATOM     14  C   UNL     1      -1.998   0.787 -17.943  1.00  0.00    +0.252 C 
ATOM     15  N   UNL     1      -2.418   0.893 -19.242  1.00  0.00    -0.365 N 
ATOM     16  O   UNL     1      -0.949   1.290 -17.567  1.00  0.00    -0.269 OA
ATOM     17  H   UNL     1      -3.138   0.290 -19.617  1.00  0.00    +0.159 HD
ATOM     18  H   UNL     1      -1.747   1.283 -19.892  1.00  0.00    +0.159 HD
ENDBRANCH   5  14
ENDBRANCH   1   2
BRANCH   1  19
ATOM     19  C   UNL     1      -6.145   2.764 -15.386  1.00  0.00    +0.129 A 
ATOM     20  C   UNL     1      -5.493   3.496 -16.380  1.00  0.00    +0.049 A 
ATOM     21  C   UNL     1      -7.537   2.725 -15.354  1.00  0.00    +0.069 A 
ATOM     22  C   UNL     1      -6.233   4.166 -17.361  1.00  0.00    +0.031 A 
ATOM     23  C   UNL     1      -8.272   3.394 -16.336  1.00  0.00    +0.068 A 
ATOM     24  C   UNL     1      -7.630   4.127 -17.351  1.00  0.00    +0.061 A 
ATOM     25 Cl   UNL     1     -10.000   3.299 -16.263  1.00  0.00    -0.082 Cl
BRANCH  24  26
ATOM     26  N   UNL     1      -8.428   4.779 -18.320  1.00  0.00    -0.307 N 
ATOM     27  C   UNL     1      -8.959   6.050 -18.268  1.00  0.00    +0.319 C 
ATOM     28  O   UNL     1      -8.885   6.828 -17.325  1.00  0.00    -0.248 OA
ATOM     29  N   UNL     1      -9.629   6.354 -19.443  1.00  0.00    -0.335 N 
ATOM     30  H   UNL     1      -8.759   4.188 -19.072  1.00  0.00    +0.171 HD
ATOM     31  H   UNL     1      -9.345   5.841 -20.266  1.00  0.00    +0.165 HD
BRANCH  29  32
ATOM     32  C   UNL     1     -10.230   7.636 -19.651  1.00  0.00    +0.084 C 
ATOM     33  C   UNL     1      -9.391   8.820 -20.043  1.00  0.00    +0.027 C 
ATOM     34  C   UNL     1     -10.340   8.214 -21.036  1.00  0.00    +0.027 C 
ENDBRANCH  29  32
ENDBRANCH  24  26
ENDBRANCH   1  19
TORSDOF 6
ENDMDL
MODEL 6
REMARK VINA RESULT:    -7.725      3.291      9.818
REMARK INTER + INTRA:         -11.424
REMARK INTER:                 -11.636
REMARK INTRA:                   0.212
REMARK UNBOUND:                -0.990
REMARK SMILES COc1cc2nccc(Oc3ccc(NC(=O)NC4CC4)c(Cl)c3)c2cc1C(N)=O
REMARK SMILES IDX 10 1 9 2 3 3 4 4 27 5 5 6 26 7 6 8 25 9 7 10 8 11 2 12 1 13
REMARK SMILES IDX 28 14 29 15 30 16 11 19 12 20 24 21 13 22 22 23 14 24 23 25
REMARK SMILES IDX 15 26 16 27 17 28 18 29 19 32 20 33 21 34
REMARK H PARENT 29 17 29 18 15 30 18 31
ROOT
ATOM      1  O   UNL     1     -10.257   1.474 -14.077  1.00  0.00    -0.457 OA
ENDROOT
BRANCH   1   2
ATOM      2  C   UNL     1     -10.661   2.719 -14.511  1.00  0.00    +0.138 A 
ATOM      3  C   UNL     1      -8.439   4.828 -17.391  1.00  0.00    +0.133 A 
ATOM      4  C   UNL     1      -9.624   5.342 -16.858  1.00  0.00    +0.076 A 
ATOM      5  C   UNL     1      -7.948   3.600 -16.948  1.00  0.00    +0.082 A 
ATOM      6  C   UNL     1     -10.363   4.643 -15.915  1.00  0.00    +0.078 A 
ATOM      7  C   UNL     1      -8.678   2.878 -15.997  1.00  0.00    +0.032 A 
ATOM      8  N   UNL     1     -11.505   5.184 -15.454  1.00  0.00    -0.256 NA
ATOM      9  C   UNL     1      -9.887   3.391 -15.476  1.00  0.00    +0.044 A 
ATOM     10  C   UNL     1     -12.228   4.491 -14.548  1.00  0.00    +0.115 A 
ATOM     11  C   UNL     1     -11.858   3.260 -14.053  1.00  0.00    +0.068 A 
BRANCH   3  12
ATOM     12  O   UNL     1      -7.720   5.604 -18.262  1.00  0.00    -0.496 OA
ATOM     13  C   UNL     1      -8.590   6.244 -19.197  1.00  0.00    +0.278 C 
ENDBRANCH   3  12
BRANCH   5  14
ATOM     14  C   UNL     1      -6.693   3.029 -17.489  1.00  0.00    +0.252 C 
ATOM     15  N   UNL     1      -5.563   3.778 -17.299  1.00  0.00    -0.365 N 
ATOM     16  O   UNL     1      -6.655   1.949 -18.060  1.00  0.00    -0.269 OA
ATOM     17  H   UNL     1      -5.611   4.758 -17.058  1.00  0.00    +0.159 HD
ATOM     18  H   UNL     1      -4.733   3.454 -17.781  1.00  0.00    +0.159 HD
ENDBRANCH   5  14
ENDBRANCH   1   2
BRANCH   1  19
ATOM     19  C   UNL     1     -10.850   0.978 -12.935  1.00  0.00    +0.129 A 
ATOM     20  C   UNL     1     -11.771   1.691 -12.166  1.00  0.00    +0.049 A 
ATOM     21  C   UNL     1     -10.432  -0.285 -12.523  1.00  0.00    +0.069 A 
ATOM     22  C   UNL     1     -12.298   1.129 -10.997  1.00  0.00    +0.031 A 
ATOM     23  C   UNL     1     -10.961  -0.843 -11.357  1.00  0.00    +0.068 A 
ATOM     24  C   UNL     1     -11.898  -0.142 -10.576  1.00  0.00    +0.061 A 
ATOM     25 Cl   UNL     1     -10.423  -2.424 -10.898  1.00  0.00    -0.082 Cl
BRANCH  24  26
ATOM     26  N   UNL     1     -12.401  -0.763  -9.409  1.00  0.00    -0.307 N 
ATOM     27  C   UNL     1     -13.629  -1.364  -9.228  1.00  0.00    +0.319 C 
ATOM     28  O   UNL     1     -14.542  -1.406 -10.042  1.00  0.00    -0.248 OA
ATOM     29  N   UNL     1     -13.724  -1.921  -7.961  1.00  0.00    -0.335 N 
ATOM     30  H   UNL     1     -11.845  -0.624  -8.574  1.00  0.00    +0.171 HD
ATOM     31  H   UNL     1     -12.852  -2.159  -7.511  1.00  0.00    +0.165 HD
BRANCH  29  32
ATOM     32  C   UNL     1     -14.889  -2.642  -7.547  1.00  0.00    +0.084 C 
ATOM     33  C   UNL     1     -14.803  -4.103  -7.204  1.00  0.00    +0.027 C 
ATOM     34  C   UNL     1     -15.042  -3.093  -6.120  1.00  0.00    +0.027 C 
ENDBRANCH  29  32
ENDBRANCH  24  26
ENDBRANCH   1  19
TORSDOF 6
ENDMDL
MODEL 7
REMARK VINA RESULT:    -7.719      4.489      6.010
REMARK INTER + INTRA:         -11.417
REMARK INTER:                 -10.332
REMARK INTRA:                  -1.085
REMARK UNBOUND:                -0.990
REMARK SMILES COc1cc2nccc(Oc3ccc(NC(=O)NC4CC4)c(Cl)c3)c2cc1C(N)=O
REMARK SMILES IDX 10 1 9 2 3 3 4 4 27 5 5 6 26 7 6 8 25 9 7 10 8 11 2 12 1 13
REMARK SMILES IDX 28 14 29 15 30 16 11 19 12 20 24 21 13 22 22 23 14 24 23 25
REMARK SMILES IDX 15 26 16 27 17 28 18 29 19 32 20 33 21 34
REMARK H PARENT 29 17 29 18 15 30 18 31
ROOT
ATOM      1  O   UNL     1     -11.269  -0.725 -10.269  1.00  0.00    -0.457 OA
ENDROOT
BRANCH   1   2
ATOM      2  C   UNL     1     -11.975  -1.905 -10.372  1.00  0.00    +0.138 A 
ATOM      3  C   UNL     1     -15.674  -2.385  -8.432  1.00  0.00    +0.133 A 
ATOM      4  C   UNL     1     -15.125  -3.397  -9.226  1.00  0.00    +0.076 A 
ATOM      5  C   UNL     1     -14.980  -1.192  -8.243  1.00  0.00    +0.082 A 
ATOM      6  C   UNL     1     -13.909  -3.236  -9.874  1.00  0.00    +0.078 A 
ATOM      7  C   UNL     1     -13.751  -1.008  -8.887  1.00  0.00    +0.032 A 
ATOM      8  N   UNL     1     -13.442  -4.240 -10.637  1.00  0.00    -0.256 NA
ATOM      9  C   UNL     1     -13.209  -2.024  -9.705  1.00  0.00    +0.044 A 
ATOM     10  C   UNL     1     -12.266  -4.071 -11.278  1.00  0.00    +0.115 A 
ATOM     11  C   UNL     1     -11.502  -2.929 -11.187  1.00  0.00    +0.068 A 
BRANCH   3  12
ATOM     12  O   UNL     1     -16.841  -2.639  -7.760  1.00  0.00    -0.496 OA
ATOM     13  C   UNL     1     -16.588  -3.436  -6.602  1.00  0.00    +0.278 C 
ENDBRANCH   3  12
BRANCH   5  14
ATOM     14  C   UNL     1     -15.532  -0.101  -7.405  1.00  0.00    +0.252 C 
ATOM     15  N   UNL     1     -16.795   0.318  -7.724  1.00  0.00    -0.365 N 
ATOM     16  O   UNL     1     -14.911   0.391  -6.474  1.00  0.00    -0.269 OA
ATOM     17  H   UNL     1     -17.215   0.103  -8.618  1.00  0.00    +0.159 HD
ATOM     18  H   UNL     1     -17.120   1.147  -7.241  1.00  0.00    +0.159 HD
ENDBRANCH   5  14
ENDBRANCH   1   2
BRANCH   1  19
ATOM     19  C   UNL     1     -11.233   0.091 -11.380  1.00  0.00    +0.129 A 
ATOM     20  C   UNL     1     -10.280  -0.019 -12.393  1.00  0.00    +0.049 A 
ATOM     21  C   UNL     1     -12.180   1.111 -11.425  1.00  0.00    +0.069 A 
ATOM     22  C   UNL     1     -10.291   0.876 -13.470  1.00  0.00    +0.031 A 
ATOM     23  C   UNL     1     -12.188   2.000 -12.502  1.00  0.00    +0.068 A 
ATOM     24  C   UNL     1     -11.241   1.898 -13.538  1.00  0.00    +0.061 A 
ATOM     25 Cl   UNL     1     -13.398   3.240 -12.521  1.00  0.00    -0.082 Cl
BRANCH  24  26
ATOM     26  N   UNL     1     -11.305   2.826 -14.603  1.00  0.00    -0.307 N 
ATOM     27  C   UNL     1     -10.290   3.610 -15.109  1.00  0.00    +0.319 C 
ATOM     28  O   UNL     1      -9.150   3.690 -14.670  1.00  0.00    -0.248 OA
ATOM     29  N   UNL     1     -10.729   4.341 -16.202  1.00  0.00    -0.335 N 
ATOM     30  H   UNL     1     -12.238   3.034 -14.937  1.00  0.00    +0.171 HD
ATOM     31  H   UNL     1     -11.521   3.965 -16.703  1.00  0.00    +0.165 HD
BRANCH  29  32
ATOM     32  C   UNL     1      -9.846   5.199 -16.931  1.00  0.00    +0.084 C 
ATOM     33  C   UNL     1     -10.336   5.960 -18.132  1.00  0.00    +0.027 C 
ATOM     34  C   UNL     1     -10.004   6.694 -16.865  1.00  0.00    +0.027 C 
ENDBRANCH  29  32
ENDBRANCH  24  26
ENDBRANCH   1  19
TORSDOF 6
ENDMDL
MODEL 8
REMARK VINA RESULT:    -7.672      6.361      9.123
REMARK INTER + INTRA:         -11.352
REMARK INTER:                 -10.070
REMARK INTRA:                  -1.282
REMARK UNBOUND:                -0.990
REMARK SMILES COc1cc2nccc(Oc3ccc(NC(=O)NC4CC4)c(Cl)c3)c2cc1C(N)=O
REMARK SMILES IDX 10 1 9 2 3 3 4 4 27 5 5 6 26 7 6 8 25 9 7 10 8 11 2 12 1 13
REMARK SMILES IDX 28 14 29 15 30 16 11 19 12 20 24 21 13 22 22 23 14 24 23 25
REMARK SMILES IDX 15 26 16 27 17 28 18 29 19 32 20 33 21 34
REMARK H PARENT 29 17 29 18 15 30 18 31
ROOT
ATOM      1  O   UNL     1      -4.570  -0.066 -15.258  1.00  0.00    -0.457 OA
ENDROOT
BRANCH   1   2
ATOM      2  C   UNL     1      -3.632  -0.832 -15.917  1.00  0.00    +0.138 A 
ATOM      3  C   UNL     1      -4.003  -5.017 -16.097  1.00  0.00    +0.133 A 
ATOM      4  C   UNL     1      -2.947  -4.346 -16.722  1.00  0.00    +0.076 A 
ATOM      5  C   UNL     1      -4.950  -4.301 -15.366  1.00  0.00    +0.082 A 
ATOM      6  C   UNL     1      -2.829  -2.965 -16.671  1.00  0.00    +0.078 A 
ATOM      7  C   UNL     1      -4.850  -2.907 -15.301  1.00  0.00    +0.032 A 
ATOM      8  N   UNL     1      -1.801  -2.377 -17.307  1.00  0.00    -0.256 NA
ATOM      9  C   UNL     1      -3.794  -2.230 -15.952  1.00  0.00    +0.044 A 
ATOM     10  C   UNL     1      -1.701  -1.031 -17.268  1.00  0.00    +0.115 A 
ATOM     11  C   UNL     1      -2.587  -0.217 -16.598  1.00  0.00    +0.068 A 
BRANCH   3  12
ATOM     12  O   UNL     1      -4.017  -6.386 -16.123  1.00  0.00    -0.496 OA
ATOM     13  C   UNL     1      -3.856  -6.863 -17.460  1.00  0.00    +0.278 C 
ENDBRANCH   3  12
BRANCH   5  14
ATOM     14  C   UNL     1      -6.078  -4.982 -14.689  1.00  0.00    +0.252 C 
ATOM     15  N   UNL     1      -6.733  -5.933 -15.424  1.00  0.00    -0.365 N 
ATOM     16  O   UNL     1      -6.404  -4.728 -13.538  1.00  0.00    -0.269 OA
ATOM     17  H   UNL     1      -6.641  -5.981 -16.430  1.00  0.00    +0.159 HD
ATOM     18  H   UNL     1      -7.581  -6.302 -15.012  1.00  0.00    +0.159 HD
ENDBRANCH   5  14
ENDBRANCH   1   2
BRANCH   1  19
ATOM     19  C   UNL     1      -5.317   0.812 -16.014  1.00  0.00    +0.129 A 
ATOM     20  C   UNL     1      -6.348   0.418 -16.868  1.00  0.00    +0.049 A 
ATOM     21  C   UNL     1      -4.949   2.153 -15.944  1.00  0.00    +0.069 A 
ATOM     22  C   UNL     1      -7.033   1.370 -17.632  1.00  0.00    +0.031 A 
ATOM     23  C   UNL     1      -5.636   3.101 -16.706  1.00  0.00    +0.068 A 
ATOM     24  C   UNL     1      -6.685   2.722 -17.564  1.00  0.00    +0.061 A 
ATOM     25 Cl   UNL     1      -5.152   4.758 -16.569  1.00  0.00    -0.082 Cl
BRANCH  24  26
ATOM     26  N   UNL     1      -7.345   3.729 -18.307  1.00  0.00    -0.307 N 
ATOM     27  C   UNL     1      -8.423   4.498 -17.923  1.00  0.00    +0.319 C 
ATOM     28  O   UNL     1      -9.051   4.395 -16.877  1.00  0.00    -0.248 OA
ATOM     29  N   UNL     1      -8.740   5.426 -18.904  1.00  0.00    -0.335 N 
ATOM     30  H   UNL     1      -7.079   3.788 -19.281  1.00  0.00    +0.171 HD
ATOM     31  H   UNL     1      -7.994   5.686 -19.533  1.00  0.00    +0.165 HD
BRANCH  29  32
ATOM     32  C   UNL     1      -9.797   6.374 -18.722  1.00  0.00    +0.084 C 
ATOM     33  C   UNL     1      -9.553   7.661 -17.984  1.00  0.00    +0.027 C 
ATOM     34  C   UNL     1      -9.789   7.682 -19.466  1.00  0.00    +0.027 C 
ENDBRANCH  29  32
ENDBRANCH  24  26
ENDBRANCH   1  19
TORSDOF 6
ENDMDL
MODEL 9
REMARK VINA RESULT:    -7.633      3.901      5.286
REMARK INTER + INTRA:         -11.300
REMARK INTER:                 -10.168
REMARK INTRA:                  -1.131
REMARK UNBOUND:                -0.990
REMARK SMILES COc1cc2nccc(Oc3ccc(NC(=O)NC4CC4)c(Cl)c3)c2cc1C(N)=O
REMARK SMILES IDX 10 1 9 2 3 3 4 4 27 5 5 6 26 7 6 8 25 9 7 10 8 11 2 12 1 13
REMARK SMILES IDX 28 14 29 15 30 16 11 19 12 20 24 21 13 22 22 23 14 24 23 25
REMARK SMILES IDX 15 26 16 27 17 28 18 29 19 32 20 33 21 34
REMARK H PARENT 29 17 29 18 15 30 18 31
ROOT
ATOM      1  O   UNL     1     -10.405  -1.269 -12.827  1.00  0.00    -0.457 OA
ENDROOT
BRANCH   1   2
ATOM      2  C   UNL     1      -9.924  -1.431 -11.545  1.00  0.00    +0.138 A 
ATOM      3  C   UNL     1     -12.424  -0.867  -8.212  1.00  0.00    +0.133 A 
ATOM      4  C   UNL     1     -11.088  -1.251  -8.070  1.00  0.00    +0.076 A 
ATOM      5  C   UNL     1     -12.952  -0.631  -9.481  1.00  0.00    +0.082 A 
ATOM      6  C   UNL     1     -10.264  -1.446  -9.169  1.00  0.00    +0.078 A 
ATOM      7  C   UNL     1     -12.139  -0.822 -10.603  1.00  0.00    +0.032 A 
ATOM      8  N   UNL     1      -8.993  -1.832  -8.967  1.00  0.00    -0.256 NA
ATOM      9  C   UNL     1     -10.795  -1.231 -10.457  1.00  0.00    +0.044 A 
ATOM     10  C   UNL     1      -8.201  -2.037 -10.041  1.00  0.00    +0.115 A 
ATOM     11  C   UNL     1      -8.616  -1.859 -11.343  1.00  0.00    +0.068 A 
BRANCH   3  12
ATOM     12  O   UNL     1     -13.159  -0.618  -7.083  1.00  0.00    -0.496 OA
ATOM     13  C   UNL     1     -12.721   0.589  -6.457  1.00  0.00    +0.278 C 
ENDBRANCH   3  12
BRANCH   5  14
ATOM     14  C   UNL     1     -14.363  -0.220  -9.666  1.00  0.00    +0.252 C 
ATOM     15  N   UNL     1     -15.309  -1.117  -9.247  1.00  0.00    -0.365 N 
ATOM     16  O   UNL     1     -14.676   0.859 -10.149  1.00  0.00    -0.269 OA
ATOM     17  H   UNL     1     -15.082  -2.087  -9.080  1.00  0.00    +0.159 HD
ATOM     18  H   UNL     1     -16.266  -0.895  -9.493  1.00  0.00    +0.159 HD
ENDBRANCH   5  14
ENDBRANCH   1   2
BRANCH   1  19
ATOM     19  C   UNL     1     -10.155  -0.065 -13.451  1.00  0.00    +0.129 A 
ATOM     20  C   UNL     1      -8.926   0.275 -14.018  1.00  0.00    +0.049 A 
ATOM     21  C   UNL     1     -11.194   0.862 -13.437  1.00  0.00    +0.069 A 
ATOM     22  C   UNL     1      -8.744   1.536 -14.599  1.00  0.00    +0.031 A 
ATOM     23  C   UNL     1     -11.008   2.118 -14.019  1.00  0.00    +0.068 A 
ATOM     24  C   UNL     1      -9.779   2.474 -14.605  1.00  0.00    +0.061 A 
ATOM     25 Cl   UNL     1     -12.337   3.230 -13.993  1.00  0.00    -0.082 Cl
BRANCH  24  26
ATOM     26  N   UNL     1      -9.655   3.759 -15.183  1.00  0.00    -0.307 N 
ATOM     27  C   UNL     1      -9.373   4.077 -16.495  1.00  0.00    +0.319 C 
ATOM     28  O   UNL     1      -9.109   3.286 -17.391  1.00  0.00    -0.248 OA
ATOM     29  N   UNL     1      -9.404   5.450 -16.687  1.00  0.00    -0.335 N 
ATOM     30  H   UNL     1      -9.635   4.527 -14.524  1.00  0.00    +0.171 HD
ATOM     31  H   UNL     1      -9.961   5.981 -16.034  1.00  0.00    +0.165 HD
BRANCH  29  32
ATOM     32  C   UNL     1      -9.186   6.029 -17.978  1.00  0.00    +0.084 C 
ATOM     33  C   UNL     1     -10.348   6.353 -18.877  1.00  0.00    +0.027 C 
ATOM     34  C   UNL     1      -9.557   7.462 -18.246  1.00  0.00    +0.027 C 
ENDBRANCH  29  32
ENDBRANCH  24  26
ENDBRANCH   1  19
TORSDOF 6
ENDMDL
MODEL 10
REMARK VINA RESULT:    -7.625      4.643      7.174
REMARK INTER + INTRA:         -11.289
REMARK INTER:                 -10.006
REMARK INTRA:                  -1.284
REMARK UNBOUND:                -0.990
REMARK SMILES COc1cc2nccc(Oc3ccc(NC(=O)NC4CC4)c(Cl)c3)c2cc1C(N)=O
REMARK SMILES IDX 10 1 9 2 3 3 4 4 27 5 5 6 26 7 6 8 25 9 7 10 8 11 2 12 1 13
REMARK SMILES IDX 28 14 29 15 30 16 11 19 12 20 24 21 13 22 22 23 14 24 23 25
REMARK SMILES IDX 15 26 16 27 17 28 18 29 19 32 20 33 21 34
REMARK H PARENT 29 17 29 18 15 30 18 31
ROOT
ATOM      1  O   UNL     1      -9.050   1.231 -15.851  1.00  0.00    -0.457 OA
ENDROOT
BRANCH   1   2
ATOM      2  C   UNL     1      -9.865   2.171 -15.256  1.00  0.00    +0.138 A 
ATOM      3  C   UNL     1     -10.231   6.040 -16.861  1.00  0.00    +0.133 A 
ATOM      4  C   UNL     1     -10.947   5.646 -15.727  1.00  0.00    +0.076 A 
ATOM      5  C   UNL     1      -9.347   5.153 -17.473  1.00  0.00    +0.082 A 
ATOM      6  C   UNL     1     -10.834   4.367 -15.202  1.00  0.00    +0.078 A 
ATOM      7  C   UNL     1      -9.217   3.858 -16.960  1.00  0.00    +0.032 A 
ATOM      8  N   UNL     1     -11.562   4.043 -14.119  1.00  0.00    -0.256 NA
ATOM      9  C   UNL     1      -9.958   3.455 -15.826  1.00  0.00    +0.044 A 
ATOM     10  C   UNL     1     -11.460   2.791 -13.623  1.00  0.00    +0.115 A 
ATOM     11  C   UNL     1     -10.638   1.821 -14.154  1.00  0.00    +0.068 A 
BRANCH   3  12
ATOM     12  O   UNL     1     -10.332   7.340 -17.281  1.00  0.00    -0.496 OA
ATOM     13  C   UNL     1      -9.861   8.231 -16.268  1.00  0.00    +0.278 C 
ENDBRANCH   3  12
BRANCH   5  14
ATOM     14  C   UNL     1      -8.571   5.541 -18.674  1.00  0.00    +0.252 C 
ATOM     15  N   UNL     1      -9.253   6.251 -19.625  1.00  0.00    -0.365 N 
ATOM     16  O   UNL     1      -7.388   5.262 -18.811  1.00  0.00    -0.269 OA
ATOM     17  H   UNL     1     -10.264   6.276 -19.644  1.00  0.00    +0.159 HD
ATOM     18  H   UNL     1      -8.764   6.401 -20.499  1.00  0.00    +0.159 HD
ENDBRANCH   5  14
ENDBRANCH   1   2
BRANCH   1  19
ATOM     19  C   UNL     1      -7.846   0.959 -15.239  1.00  0.00    +0.129 A 
ATOM     20  C   UNL     1      -7.039   1.930 -14.645  1.00  0.00    +0.049 A 
ATOM     21  C   UNL     1      -7.413  -0.364 -15.293  1.00  0.00    +0.069 A 
ATOM     22  C   UNL     1      -5.810   1.574 -14.078  1.00  0.00    +0.031 A 
ATOM     23  C   UNL     1      -6.187  -0.716 -14.725  1.00  0.00    +0.068 A 
ATOM     24  C   UNL     1      -5.366   0.250 -14.112  1.00  0.00    +0.061 A 
ATOM     25 Cl   UNL     1      -5.703  -2.377 -14.802  1.00  0.00    -0.082 Cl
BRANCH  24  26
ATOM     26  N   UNL     1      -4.138  -0.169 -13.550  1.00  0.00    -0.307 N 
ATOM     27  C   UNL     1      -3.866  -0.473 -12.233  1.00  0.00    +0.319 C 
ATOM     28  O   UNL     1      -4.639  -0.365 -11.290  1.00  0.00    -0.248 OA
ATOM     29  N   UNL     1      -2.559  -0.912 -12.087  1.00  0.00    -0.335 N 
ATOM     30  H   UNL     1      -3.338  -0.103 -14.167  1.00  0.00    +0.171 HD
ATOM     31  H   UNL     1      -2.125  -1.307 -12.910  1.00  0.00    +0.165 HD
BRANCH  29  32
ATOM     32  C   UNL     1      -2.048  -1.331 -10.818  1.00  0.00    +0.084 C 
ATOM     33  C   UNL     1      -0.666  -1.912 -10.703  1.00  0.00    +0.027 C 
ATOM     34  C   UNL     1      -0.954  -0.552 -10.138  1.00  0.00    +0.027 C 
ENDBRANCH  29  32
ENDBRANCH  24  26
ENDBRANCH   1  19
TORSDOF 6
ENDMDL
