REMARK SMILES CNC(=O)c1cc(Oc2ccc(NC(=O)Nc3ccc(Cl)c(C(F)(F)F)c3)c(F)c2)ccn1
REMARK SMILES IDX 9 1 10 2 11 3 12 4 28 5 29 6 30 7 8 8 7 9 5 10 6 11 33 12
REMARK SMILES IDX 32 13 31 14 3 15 2 16 4 17 1 18 13 20 14 21 15 22 16 23
REMARK SMILES IDX 17 26 18 27 27 28 19 29 22 30 20 31 21 32 23 33 24 34 25 35
REMARK SMILES IDX 26 36
REMARK H PARENT 2 19 13 24 16 25
ROOT
ATOM      1  C   UNL     1       1.829   0.798  -1.018  1.00  0.00    +0.130 A 
ATOM      2  C   UNL     1       0.716   1.635  -1.105  1.00  0.00    +0.049 A 
ATOM      3  C   UNL     1      -0.575   1.110  -0.977  1.00  0.00    +0.033 A 
ATOM      4  C   UNL     1      -0.758  -0.258  -0.775  1.00  0.00    +0.079 A 
ATOM      5  C   UNL     1       0.374  -1.084  -0.724  1.00  0.00    +0.150 A 
ATOM      6  F   UNL     1       0.214  -2.407  -0.551  1.00  0.00    -0.205 F 
ATOM      7  C   UNL     1       1.662  -0.575  -0.847  1.00  0.00    +0.088 A 
ENDROOT
BRANCH   1   8
ATOM      8  O   UNL     1       3.067   1.375  -1.183  1.00  0.00    -0.457 OA
BRANCH   8   9
ATOM      9  C   UNL     1       4.027   1.069  -0.245  1.00  0.00    +0.131 A 
ATOM     10  C   UNL     1       6.267   0.450   0.223  1.00  0.00    +0.131 A 
ATOM     11  C   UNL     1       5.287   0.727  -0.717  1.00  0.00    +0.081 A 
ATOM     12  N   UNL     1       6.068   0.506   1.572  1.00  0.00    -0.251 NA
ATOM     13  C   UNL     1       4.835   0.870   1.985  1.00  0.00    +0.116 A 
ATOM     14  C   UNL     1       3.792   1.164   1.125  1.00  0.00    +0.067 A 
BRANCH  10  15
ATOM     15  C   UNL     1       7.640   0.055  -0.229  1.00  0.00    +0.269 C 
ATOM     16  N   UNL     1       8.539  -0.143   0.798  1.00  0.00    -0.354 N 
ATOM     17  O   UNL     1       7.908  -0.086  -1.417  1.00  0.00    -0.268 OA
ATOM     18  C   UNL     1       9.867  -0.645   0.575  1.00  0.00    +0.143 C 
ATOM     19  H   UNL     1       8.158  -0.091   1.739  1.00  0.00    +0.163 HD
ENDBRANCH  10  15
ENDBRANCH   8   9
ENDBRANCH   1   8
BRANCH   4  20
ATOM     20  N   UNL     1      -2.016  -0.886  -0.643  1.00  0.00    -0.305 N 
ATOM     21  C   UNL     1      -3.251  -0.277  -0.499  1.00  0.00    +0.323 C 
ATOM     22  O   UNL     1      -3.425   0.928  -0.381  1.00  0.00    -0.248 OA
ATOM     23  N   UNL     1      -4.260  -1.228  -0.508  1.00  0.00    -0.308 N 
ATOM     24  H   UNL     1      -1.974  -1.885  -0.491  1.00  0.00    +0.171 HD
ATOM     25  H   UNL     1      -3.996  -2.142  -0.845  1.00  0.00    +0.171 HD
BRANCH  23  26
ATOM     26  C   UNL     1      -5.638  -1.021  -0.291  1.00  0.00    +0.043 A 
ATOM     27  C   UNL     1      -6.491  -2.103  -0.527  1.00  0.00    +0.028 A 
ATOM     28  C   UNL     1      -6.187   0.182   0.161  1.00  0.00    +0.040 A 
ATOM     29  C   UNL     1      -7.867  -1.978  -0.328  1.00  0.00    +0.023 A 
ATOM     30  C   UNL     1      -7.576   0.326   0.368  1.00  0.00    +0.076 A 
ATOM     31  C   UNL     1      -8.409  -0.769   0.115  1.00  0.00    +0.053 A 
ATOM     32 Cl   UNL     1     -10.119  -0.697   0.335  1.00  0.00    -0.084 Cl
BRANCH  30  33
ATOM     33  C   UNL     1      -8.132   1.637   0.853  1.00  0.00    +0.417 C 
ATOM     34  F   UNL     1      -9.016   2.196  -0.019  1.00  0.00    -0.166 F 
ATOM     35  F   UNL     1      -7.176   2.590   1.057  1.00  0.00    -0.166 F 
ATOM     36  F   UNL     1      -8.785   1.528   2.044  1.00  0.00    -0.166 F 
ENDBRANCH  30  33
ENDBRANCH  23  26
ENDBRANCH   4  20
TORSDOF 6
