MODEL 1
REMARK VINA RESULT:    -9.220      0.000      0.000
REMARK INTER + INTRA:         -13.511
REMARK INTER:                 -12.454
REMARK INTRA:                  -1.057
REMARK UNBOUND:                -1.057
REMARK SMILES CNC(=O)c1cc(Oc2ccc(NC(=O)Nc3ccc(Cl)c(C(F)(F)F)c3)c(F)c2)ccn1
REMARK SMILES IDX 9 1 10 2 11 3 12 4 28 5 29 6 30 7 8 8 7 9 5 10 6 11 33 12
REMARK SMILES IDX 32 13 31 14 3 15 2 16 4 17 1 18 13 20 14 21 15 22 16 23
REMARK SMILES IDX 17 26 18 27 27 28 19 29 22 30 20 31 21 32 23 33 24 34 25 35
REMARK SMILES IDX 26 36
REMARK H PARENT 2 19 13 24 16 25
ROOT
ATOM      1  C   UNL     1      -7.634  -0.274 -14.381  1.00  0.00    +0.130 A 
ATOM      2  C   UNL     1      -7.958  -0.349 -15.736  1.00  0.00    +0.049 A 
ATOM      3  C   UNL     1      -8.612   0.716 -16.366  1.00  0.00    +0.033 A 
ATOM      4  C   UNL     1      -8.957   1.855 -15.639  1.00  0.00    +0.079 A 
ATOM      5  C   UNL     1      -8.651   1.894 -14.271  1.00  0.00    +0.150 A 
ATOM      6  F   UNL     1      -8.996   2.975 -13.551  1.00  0.00    -0.205 F 
ATOM      7  C   UNL     1      -7.999   0.844 -13.633  1.00  0.00    +0.088 A 
ENDROOT
BRANCH   1   8
ATOM      8  O   UNL     1      -7.018  -1.368 -13.818  1.00  0.00    -0.457 OA
BRANCH   8   9
ATOM      9  C   UNL     1      -5.818  -1.759 -14.368  1.00  0.00    +0.131 A 
ATOM     10  C   UNL     1      -4.530  -3.463 -15.396  1.00  0.00    +0.131 A 
ATOM     11  C   UNL     1      -5.724  -3.071 -14.811  1.00  0.00    +0.081 A 
ATOM     12  N   UNL     1      -3.458  -2.636 -15.570  1.00  0.00    -0.251 NA
ATOM     13  C   UNL     1      -3.605  -1.361 -15.148  1.00  0.00    +0.116 A 
ATOM     14  C   UNL     1      -4.756  -0.877 -14.552  1.00  0.00    +0.067 A 
BRANCH  10  15
ATOM     15  C   UNL     1      -4.363  -4.873 -15.875  1.00  0.00    +0.269 C 
ATOM     16  N   UNL     1      -5.358  -5.733 -15.458  1.00  0.00    -0.354 N 
ATOM     17  O   UNL     1      -3.421  -5.202 -16.586  1.00  0.00    -0.268 OA
ATOM     18  C   UNL     1      -5.442  -7.093 -15.914  1.00  0.00    +0.143 C 
ATOM     19  H   UNL     1      -6.133  -5.307 -14.957  1.00  0.00    +0.163 HD
ENDBRANCH  10  15
ENDBRANCH   8   9
ENDBRANCH   1   8
BRANCH   4  20
ATOM     20  N   UNL     1      -9.626   2.976 -16.178  1.00  0.00    -0.305 N 
ATOM     21  C   UNL     1      -9.075   4.014 -16.910  1.00  0.00    +0.323 C 
ATOM     22  O   UNL     1      -7.880   4.153 -17.133  1.00  0.00    -0.248 OA
ATOM     23  N   UNL     1     -10.070   4.871 -17.354  1.00  0.00    -0.308 N 
ATOM     24  H   UNL     1     -10.578   3.092 -15.859  1.00  0.00    +0.171 HD
ATOM     25  H   UNL     1     -11.012   4.512 -17.300  1.00  0.00    +0.171 HD
BRANCH  23  26
ATOM     26  C   UNL     1      -9.910   6.090 -18.045  1.00  0.00    +0.043 A 
ATOM     27  C   UNL     1      -9.428   7.180 -17.313  1.00  0.00    +0.028 A 
ATOM     28  C   UNL     1     -10.181   6.260 -19.405  1.00  0.00    +0.040 A 
ATOM     29  C   UNL     1      -9.237   8.418 -17.928  1.00  0.00    +0.023 A 
ATOM     30  C   UNL     1      -9.993   7.505 -20.043  1.00  0.00    +0.076 A 
ATOM     31  C   UNL     1      -9.519   8.582 -19.287  1.00  0.00    +0.053 A 
ATOM     32 Cl   UNL     1      -9.256  10.145 -19.970  1.00  0.00    -0.084 Cl
BRANCH  30  33
ATOM     33  C   UNL     1     -10.298   7.653 -21.509  1.00  0.00    +0.417 C 
ATOM     34  F   UNL     1      -9.239   8.116 -22.230  1.00  0.00    -0.166 F 
ATOM     35  F   UNL     1     -11.318   8.523 -21.767  1.00  0.00    -0.166 F 
ATOM     36  F   UNL     1     -10.675   6.480 -22.093  1.00  0.00    -0.166 F 
ENDBRANCH  30  33
ENDBRANCH  23  26
ENDBRANCH   4  20
TORSDOF 6
ENDMDL
MODEL 2
REMARK VINA RESULT:    -9.180      7.640      9.830
REMARK INTER + INTRA:         -13.457
REMARK INTER:                 -12.359
REMARK INTRA:                  -1.098
REMARK UNBOUND:                -1.057
REMARK SMILES CNC(=O)c1cc(Oc2ccc(NC(=O)Nc3ccc(Cl)c(C(F)(F)F)c3)c(F)c2)ccn1
REMARK SMILES IDX 9 1 10 2 11 3 12 4 28 5 29 6 30 7 8 8 7 9 5 10 6 11 33 12
REMARK SMILES IDX 32 13 31 14 3 15 2 16 4 17 1 18 13 20 14 21 15 22 16 23
REMARK SMILES IDX 17 26 18 27 27 28 19 29 22 30 20 31 21 32 23 33 24 34 25 35
REMARK SMILES IDX 26 36
REMARK H PARENT 2 19 13 24 16 25
ROOT
ATOM      1  C   UNL     1     -13.717  -0.905  -9.800  1.00  0.00    +0.130 A 
ATOM      2  C   UNL     1     -12.440  -1.401 -10.064  1.00  0.00    +0.049 A 
ATOM      3  C   UNL     1     -11.501  -0.611 -10.737  1.00  0.00    +0.033 A 
ATOM      4  C   UNL     1     -11.840   0.674 -11.159  1.00  0.00    +0.079 A 
ATOM      5  C   UNL     1     -13.140   1.138 -10.911  1.00  0.00    +0.150 A 
ATOM      6  F   UNL     1     -13.489   2.367 -11.330  1.00  0.00    -0.205 F 
ATOM      7  C   UNL     1     -14.082   0.365 -10.242  1.00  0.00    +0.088 A 
ENDROOT
BRANCH   1   8
ATOM      8  O   UNL     1     -14.601  -1.745  -9.163  1.00  0.00    -0.457 OA
BRANCH   8   9
ATOM      9  C   UNL     1     -14.881  -1.471  -7.843  1.00  0.00    +0.131 A 
ATOM     10  C   UNL     1     -16.441  -0.720  -6.224  1.00  0.00    +0.131 A 
ATOM     11  C   UNL     1     -16.142  -0.968  -7.554  1.00  0.00    +0.081 A 
ATOM     12  N   UNL     1     -15.579  -0.952  -5.192  1.00  0.00    -0.251 NA
ATOM     13  C   UNL     1     -14.374  -1.468  -5.517  1.00  0.00    +0.116 A 
ATOM     14  C   UNL     1     -13.982  -1.747  -6.814  1.00  0.00    +0.067 A 
BRANCH  10  15
ATOM     15  C   UNL     1     -17.780  -0.158  -5.856  1.00  0.00    +0.269 C 
ATOM     16  N   UNL     1     -18.781  -0.438  -6.763  1.00  0.00    -0.354 N 
ATOM     17  O   UNL     1     -17.945   0.481  -4.822  1.00  0.00    -0.268 OA
ATOM     18  C   UNL     1     -20.156  -0.093  -6.526  1.00  0.00    +0.143 C 
ATOM     19  H   UNL     1     -18.529  -1.062  -7.524  1.00  0.00    +0.163 HD
ENDBRANCH  10  15
ENDBRANCH   8   9
ENDBRANCH   1   8
BRANCH   4  20
ATOM     20  N   UNL     1     -10.969   1.545 -11.851  1.00  0.00    -0.305 N 
ATOM     21  C   UNL     1     -10.990   1.862 -13.198  1.00  0.00    +0.323 C 
ATOM     22  O   UNL     1     -11.739   1.355 -14.023  1.00  0.00    -0.248 OA
ATOM     23  N   UNL     1     -10.043   2.835 -13.478  1.00  0.00    -0.308 N 
ATOM     24  H   UNL     1     -10.162   1.843 -11.320  1.00  0.00    +0.171 HD
ATOM     25  H   UNL     1      -9.668   3.323 -12.678  1.00  0.00    +0.171 HD
BRANCH  23  26
ATOM     26  C   UNL     1      -9.689   3.352 -14.742  1.00  0.00    +0.043 A 
ATOM     27  C   UNL     1      -8.540   2.832 -15.345  1.00  0.00    +0.028 A 
ATOM     28  C   UNL     1     -10.425   4.325 -15.423  1.00  0.00    +0.040 A 
ATOM     29  C   UNL     1      -8.129   3.288 -16.599  1.00  0.00    +0.023 A 
ATOM     30  C   UNL     1     -10.024   4.797 -16.692  1.00  0.00    +0.076 A 
ATOM     31  C   UNL     1      -8.865   4.268 -17.269  1.00  0.00    +0.053 A 
ATOM     32 Cl   UNL     1      -8.289   4.778 -18.814  1.00  0.00    -0.084 Cl
BRANCH  30  33
ATOM     33  C   UNL     1     -10.840   5.848 -17.395  1.00  0.00    +0.417 C 
ATOM     34  F   UNL     1     -11.987   6.163 -16.732  1.00  0.00    -0.166 F 
ATOM     35  F   UNL     1     -11.238   5.478 -18.647  1.00  0.00    -0.166 F 
ATOM     36  F   UNL     1     -10.163   7.017 -17.568  1.00  0.00    -0.166 F 
ENDBRANCH  30  33
ENDBRANCH  23  26
ENDBRANCH   4  20
TORSDOF 6
ENDMDL
MODEL 3
REMARK VINA RESULT:    -9.177      1.891      3.014
REMARK INTER + INTRA:         -13.453
REMARK INTER:                 -12.381
REMARK INTRA:                  -1.072
REMARK UNBOUND:                -1.057
REMARK SMILES CNC(=O)c1cc(Oc2ccc(NC(=O)Nc3ccc(Cl)c(C(F)(F)F)c3)c(F)c2)ccn1
REMARK SMILES IDX 9 1 10 2 11 3 12 4 28 5 29 6 30 7 8 8 7 9 5 10 6 11 33 12
REMARK SMILES IDX 32 13 31 14 3 15 2 16 4 17 1 18 13 20 14 21 15 22 16 23
REMARK SMILES IDX 17 26 18 27 27 28 19 29 22 30 20 31 21 32 23 33 24 34 25 35
REMARK SMILES IDX 26 36
REMARK H PARENT 2 19 13 24 16 25
ROOT
ATOM      1  C   UNL     1      -7.950  -0.093 -14.122  1.00  0.00    +0.130 A 
ATOM      2  C   UNL     1      -8.281  -0.187 -15.474  1.00  0.00    +0.049 A 
ATOM      3  C   UNL     1      -8.896   0.887 -16.128  1.00  0.00    +0.033 A 
ATOM      4  C   UNL     1      -9.194   2.055 -15.427  1.00  0.00    +0.079 A 
ATOM      5  C   UNL     1      -8.883   2.114 -14.061  1.00  0.00    +0.150 A 
ATOM      6  F   UNL     1      -9.183   3.225 -13.366  1.00  0.00    -0.205 F 
ATOM      7  C   UNL     1      -8.270   1.055 -13.400  1.00  0.00    +0.088 A 
ENDROOT
BRANCH   1   8
ATOM      8  O   UNL     1      -7.376  -1.197 -13.534  1.00  0.00    -0.457 OA
BRANCH   8   9
ATOM      9  C   UNL     1      -6.007  -1.309 -13.625  1.00  0.00    +0.131 A 
ATOM     10  C   UNL     1      -3.886  -1.021 -12.605  1.00  0.00    +0.131 A 
ATOM     11  C   UNL     1      -5.263  -0.881 -12.534  1.00  0.00    +0.081 A 
ATOM     12  N   UNL     1      -3.229  -1.563 -13.671  1.00  0.00    -0.251 NA
ATOM     13  C   UNL     1      -3.995  -1.992 -14.697  1.00  0.00    +0.116 A 
ATOM     14  C   UNL     1      -5.374  -1.893 -14.720  1.00  0.00    +0.067 A 
BRANCH  10  15
ATOM     15  C   UNL     1      -3.032  -0.557 -11.465  1.00  0.00    +0.269 C 
ATOM     16  N   UNL     1      -1.686  -0.813 -11.626  1.00  0.00    -0.354 N 
ATOM     17  O   UNL     1      -3.514   0.012 -10.492  1.00  0.00    -0.268 OA
ATOM     18  C   UNL     1      -0.694  -0.334 -10.702  1.00  0.00    +0.143 C 
ATOM     19  H   UNL     1      -1.411  -1.199 -12.525  1.00  0.00    +0.163 HD
ENDBRANCH  10  15
ENDBRANCH   8   9
ENDBRANCH   1   8
BRANCH   4  20
ATOM     20  N   UNL     1      -9.820   3.189 -15.991  1.00  0.00    -0.305 N 
ATOM     21  C   UNL     1      -9.239   4.168 -16.778  1.00  0.00    +0.323 C 
ATOM     22  O   UNL     1      -8.046   4.236 -17.039  1.00  0.00    -0.248 OA
ATOM     23  N   UNL     1     -10.202   5.058 -17.228  1.00  0.00    -0.308 N 
ATOM     24  H   UNL     1     -10.756   3.366 -15.651  1.00  0.00    +0.171 HD
ATOM     25  H   UNL     1     -11.159   4.751 -17.134  1.00  0.00    +0.171 HD
BRANCH  23  26
ATOM     26  C   UNL     1     -10.000   6.240 -17.970  1.00  0.00    +0.043 A 
ATOM     27  C   UNL     1      -9.495   7.347 -17.282  1.00  0.00    +0.028 A 
ATOM     28  C   UNL     1     -10.254   6.358 -19.339  1.00  0.00    +0.040 A 
ATOM     29  C   UNL     1      -9.262   8.551 -17.949  1.00  0.00    +0.023 A 
ATOM     30  C   UNL     1     -10.023   7.568 -20.029  1.00  0.00    +0.076 A 
ATOM     31  C   UNL     1      -9.526   8.663 -19.316  1.00  0.00    +0.053 A 
ATOM     32 Cl   UNL     1      -9.212  10.186 -20.065  1.00  0.00    -0.084 Cl
BRANCH  30  33
ATOM     33  C   UNL     1     -10.310   7.658 -21.503  1.00  0.00    +0.417 C 
ATOM     34  F   UNL     1     -11.305   8.540 -21.799  1.00  0.00    -0.166 F 
ATOM     35  F   UNL     1     -10.704   6.473 -22.054  1.00  0.00    -0.166 F 
ATOM     36  F   UNL     1      -9.225   8.045 -22.232  1.00  0.00    -0.166 F 
ENDBRANCH  30  33
ENDBRANCH  23  26
ENDBRANCH   4  20
TORSDOF 6
ENDMDL
MODEL 4
REMARK VINA RESULT:    -9.116      2.955      4.088
REMARK INTER + INTRA:         -13.371
REMARK INTER:                 -12.421
REMARK INTRA:                  -0.950
REMARK UNBOUND:                -1.057
REMARK SMILES CNC(=O)c1cc(Oc2ccc(NC(=O)Nc3ccc(Cl)c(C(F)(F)F)c3)c(F)c2)ccn1
REMARK SMILES IDX 9 1 10 2 11 3 12 4 28 5 29 6 30 7 8 8 7 9 5 10 6 11 33 12
REMARK SMILES IDX 32 13 31 14 3 15 2 16 4 17 1 18 13 20 14 21 15 22 16 23
REMARK SMILES IDX 17 26 18 27 27 28 19 29 22 30 20 31 21 32 23 33 24 34 25 35
REMARK SMILES IDX 26 36
REMARK H PARENT 2 19 13 24 16 25
ROOT
ATOM      1  C   UNL     1      -7.491  -0.196 -14.227  1.00  0.00    +0.130 A 
ATOM      2  C   UNL     1      -8.019  -0.408 -15.501  1.00  0.00    +0.049 A 
ATOM      3  C   UNL     1      -8.707   0.617 -16.161  1.00  0.00    +0.033 A 
ATOM      4  C   UNL     1      -8.881   1.855 -15.542  1.00  0.00    +0.079 A 
ATOM      5  C   UNL     1      -8.371   2.034 -14.249  1.00  0.00    +0.150 A 
ATOM      6  F   UNL     1      -8.549   3.213 -13.630  1.00  0.00    -0.205 F 
ATOM      7  C   UNL     1      -7.683   1.025 -13.583  1.00  0.00    +0.088 A 
ENDROOT
BRANCH   1   8
ATOM      8  O   UNL     1      -6.853  -1.255 -13.624  1.00  0.00    -0.457 OA
BRANCH   8   9
ATOM      9  C   UNL     1      -6.951  -1.342 -12.254  1.00  0.00    +0.131 A 
ATOM     10  C   UNL     1      -8.275  -1.841 -10.351  1.00  0.00    +0.131 A 
ATOM     11  C   UNL     1      -8.179  -1.719 -11.729  1.00  0.00    +0.081 A 
ATOM     12  N   UNL     1      -7.236  -1.625  -9.493  1.00  0.00    -0.251 NA
ATOM     13  C   UNL     1      -6.053  -1.288 -10.050  1.00  0.00    +0.116 A 
ATOM     14  C   UNL     1      -5.859  -1.140 -11.411  1.00  0.00    +0.067 A 
BRANCH  10  15
ATOM     15  C   UNL     1      -9.582  -2.225  -9.728  1.00  0.00    +0.269 C 
ATOM     16  N   UNL     1     -10.197  -1.207  -9.029  1.00  0.00    -0.354 N 
ATOM     17  O   UNL     1     -10.048  -3.352  -9.857  1.00  0.00    -0.268 OA
ATOM     18  C   UNL     1     -11.512  -1.341  -8.467  1.00  0.00    +0.143 C 
ATOM     19  H   UNL     1      -9.751  -0.295  -9.087  1.00  0.00    +0.163 HD
ENDBRANCH  10  15
ENDBRANCH   8   9
ENDBRANCH   1   8
BRANCH   4  20
ATOM     20  N   UNL     1      -9.566   2.947 -16.118  1.00  0.00    -0.305 N 
ATOM     21  C   UNL     1      -9.022   4.000 -16.834  1.00  0.00    +0.323 C 
ATOM     22  O   UNL     1      -7.825   4.182 -17.006  1.00  0.00    -0.248 OA
ATOM     23  N   UNL     1     -10.028   4.817 -17.326  1.00  0.00    -0.308 N 
ATOM     24  H   UNL     1     -10.535   3.030 -15.841  1.00  0.00    +0.171 HD
ATOM     25  H   UNL     1     -10.958   4.424 -17.310  1.00  0.00    +0.171 HD
BRANCH  23  26
ATOM     26  C   UNL     1      -9.883   6.038 -18.018  1.00  0.00    +0.043 A 
ATOM     27  C   UNL     1      -9.407   7.132 -17.290  1.00  0.00    +0.028 A 
ATOM     28  C   UNL     1     -10.164   6.205 -19.377  1.00  0.00    +0.040 A 
ATOM     29  C   UNL     1      -9.230   8.371 -17.907  1.00  0.00    +0.023 A 
ATOM     30  C   UNL     1      -9.990   7.451 -20.017  1.00  0.00    +0.076 A 
ATOM     31  C   UNL     1      -9.522   8.533 -19.264  1.00  0.00    +0.053 A 
ATOM     32 Cl   UNL     1      -9.277  10.097 -19.949  1.00  0.00    -0.084 Cl
BRANCH  30  33
ATOM     33  C   UNL     1     -10.305   7.595 -21.481  1.00  0.00    +0.417 C 
ATOM     34  F   UNL     1     -10.727   6.433 -22.052  1.00  0.00    -0.166 F 
ATOM     35  F   UNL     1      -9.235   7.996 -22.230  1.00  0.00    -0.166 F 
ATOM     36  F   UNL     1     -11.276   8.518 -21.727  1.00  0.00    -0.166 F 
ENDBRANCH  30  33
ENDBRANCH  23  26
ENDBRANCH   4  20
TORSDOF 6
ENDMDL
MODEL 5
REMARK VINA RESULT:    -9.003      1.249      2.475
REMARK INTER + INTRA:         -13.218
REMARK INTER:                 -12.238
REMARK INTRA:                  -0.980
REMARK UNBOUND:                -1.057
REMARK SMILES CNC(=O)c1cc(Oc2ccc(NC(=O)Nc3ccc(Cl)c(C(F)(F)F)c3)c(F)c2)ccn1
REMARK SMILES IDX 9 1 10 2 11 3 12 4 28 5 29 6 30 7 8 8 7 9 5 10 6 11 33 12
REMARK SMILES IDX 32 13 31 14 3 15 2 16 4 17 1 18 13 20 14 21 15 22 16 23
REMARK SMILES IDX 17 26 18 27 27 28 19 29 22 30 20 31 21 32 23 33 24 34 25 35
REMARK SMILES IDX 26 36
REMARK H PARENT 2 19 13 24 16 25
ROOT
ATOM      1  C   UNL     1      -7.485  -0.312 -14.467  1.00  0.00    +0.130 A 
ATOM      2  C   UNL     1      -7.886  -0.392 -15.801  1.00  0.00    +0.049 A 
ATOM      3  C   UNL     1      -8.561   0.677 -16.401  1.00  0.00    +0.033 A 
ATOM      4  C   UNL     1      -8.852   1.825 -15.664  1.00  0.00    +0.079 A 
ATOM      5  C   UNL     1      -8.468   1.869 -14.315  1.00  0.00    +0.150 A 
ATOM      6  F   UNL     1      -8.759   2.959 -13.585  1.00  0.00    -0.205 F 
ATOM      7  C   UNL     1      -7.794   0.816 -13.708  1.00  0.00    +0.088 A 
ENDROOT
BRANCH   1   8
ATOM      8  O   UNL     1      -6.852  -1.410 -13.931  1.00  0.00    -0.457 OA
BRANCH   8   9
ATOM      9  C   UNL     1      -5.860  -1.989 -14.690  1.00  0.00    +0.131 A 
ATOM     10  C   UNL     1      -3.826  -1.741 -15.882  1.00  0.00    +0.131 A 
ATOM     11  C   UNL     1      -4.845  -1.158 -15.145  1.00  0.00    +0.081 A 
ATOM     12  N   UNL     1      -3.759  -3.073 -16.171  1.00  0.00    -0.251 NA
ATOM     13  C   UNL     1      -4.752  -3.846 -15.684  1.00  0.00    +0.116 A 
ATOM     14  C   UNL     1      -5.812  -3.358 -14.940  1.00  0.00    +0.067 A 
BRANCH  10  15
ATOM     15  C   UNL     1      -2.715  -0.889 -16.417  1.00  0.00    +0.269 C 
ATOM     16  N   UNL     1      -3.130   0.114 -17.268  1.00  0.00    -0.354 N 
ATOM     17  O   UNL     1      -1.548  -1.083 -16.097  1.00  0.00    -0.268 OA
ATOM     18  C   UNL     1      -2.231   1.109 -17.784  1.00  0.00    +0.143 C 
ATOM     19  H   UNL     1      -4.136   0.225 -17.368  1.00  0.00    +0.163 HD
ENDBRANCH  10  15
ENDBRANCH   8   9
ENDBRANCH   1   8
BRANCH   4  20
ATOM     20  N   UNL     1      -9.535   2.951 -16.172  1.00  0.00    -0.305 N 
ATOM     21  C   UNL     1      -9.010   3.987 -16.926  1.00  0.00    +0.323 C 
ATOM     22  O   UNL     1      -7.825   4.119 -17.198  1.00  0.00    -0.248 OA
ATOM     23  N   UNL     1     -10.018   4.850 -17.326  1.00  0.00    -0.308 N 
ATOM     24  H   UNL     1     -10.473   3.072 -15.813  1.00  0.00    +0.171 HD
ATOM     25  H   UNL     1     -10.959   4.496 -17.233  1.00  0.00    +0.171 HD
BRANCH  23  26
ATOM     26  C   UNL     1      -9.880   6.069 -18.021  1.00  0.00    +0.043 A 
ATOM     27  C   UNL     1      -9.414   7.169 -17.294  1.00  0.00    +0.028 A 
ATOM     28  C   UNL     1     -10.158   6.231 -19.381  1.00  0.00    +0.040 A 
ATOM     29  C   UNL     1      -9.244   8.408 -17.914  1.00  0.00    +0.023 A 
ATOM     30  C   UNL     1      -9.992   7.477 -20.024  1.00  0.00    +0.076 A 
ATOM     31  C   UNL     1      -9.534   8.564 -19.272  1.00  0.00    +0.053 A 
ATOM     32 Cl   UNL     1      -9.299  10.128 -19.961  1.00  0.00    -0.084 Cl
BRANCH  30  33
ATOM     33  C   UNL     1     -10.304   7.615 -21.489  1.00  0.00    +0.417 C 
ATOM     34  F   UNL     1     -10.713   6.447 -22.058  1.00  0.00    -0.166 F 
ATOM     35  F   UNL     1      -9.237   8.025 -22.235  1.00  0.00    -0.166 F 
ATOM     36  F   UNL     1     -11.285   8.527 -21.739  1.00  0.00    -0.166 F 
ENDBRANCH  30  33
ENDBRANCH  23  26
ENDBRANCH   4  20
TORSDOF 6
ENDMDL
MODEL 6
REMARK VINA RESULT:    -8.784      7.731     10.098
REMARK INTER + INTRA:         -12.922
REMARK INTER:                 -11.843
REMARK INTRA:                  -1.079
REMARK UNBOUND:                -1.057
REMARK SMILES CNC(=O)c1cc(Oc2ccc(NC(=O)Nc3ccc(Cl)c(C(F)(F)F)c3)c(F)c2)ccn1
REMARK SMILES IDX 9 1 10 2 11 3 12 4 28 5 29 6 30 7 8 8 7 9 5 10 6 11 33 12
REMARK SMILES IDX 32 13 31 14 3 15 2 16 4 17 1 18 13 20 14 21 15 22 16 23
REMARK SMILES IDX 17 26 18 27 27 28 19 29 22 30 20 31 21 32 23 33 24 34 25 35
REMARK SMILES IDX 26 36
REMARK H PARENT 2 19 13 24 16 25
ROOT
ATOM      1  C   UNL     1     -13.829  -0.836  -9.772  1.00  0.00    +0.130 A 
ATOM      2  C   UNL     1     -12.533  -1.298 -10.003  1.00  0.00    +0.049 A 
ATOM      3  C   UNL     1     -11.600  -0.486 -10.657  1.00  0.00    +0.033 A 
ATOM      4  C   UNL     1     -11.964   0.787 -11.095  1.00  0.00    +0.079 A 
ATOM      5  C   UNL     1     -13.282   1.217 -10.882  1.00  0.00    +0.150 A 
ATOM      6  F   UNL     1     -13.655   2.432 -11.317  1.00  0.00    -0.205 F 
ATOM      7  C   UNL     1     -14.218   0.421 -10.231  1.00  0.00    +0.088 A 
ENDROOT
BRANCH   1   8
ATOM      8  O   UNL     1     -14.705  -1.697  -9.151  1.00  0.00    -0.457 OA
BRANCH   8   9
ATOM      9  C   UNL     1     -14.996  -1.443  -7.830  1.00  0.00    +0.131 A 
ATOM     10  C   UNL     1     -16.569  -0.709  -6.215  1.00  0.00    +0.131 A 
ATOM     11  C   UNL     1     -16.257  -0.936  -7.546  1.00  0.00    +0.081 A 
ATOM     12  N   UNL     1     -15.720  -0.965  -5.178  1.00  0.00    -0.251 NA
ATOM     13  C   UNL     1     -14.515  -1.484  -5.499  1.00  0.00    +0.116 A 
ATOM     14  C   UNL     1     -14.111  -1.743  -6.797  1.00  0.00    +0.067 A 
BRANCH  10  15
ATOM     15  C   UNL     1     -17.908  -0.143  -5.851  1.00  0.00    +0.269 C 
ATOM     16  N   UNL     1     -18.939  -0.559  -6.668  1.00  0.00    -0.354 N 
ATOM     17  O   UNL     1     -18.047   0.611  -4.895  1.00  0.00    -0.268 OA
ATOM     18  C   UNL     1     -20.312  -0.225  -6.407  1.00  0.00    +0.143 C 
ATOM     19  H   UNL     1     -18.702  -1.264  -7.360  1.00  0.00    +0.163 HD
ENDBRANCH  10  15
ENDBRANCH   8   9
ENDBRANCH   1   8
BRANCH   4  20
ATOM     20  N   UNL     1     -11.102   1.678 -11.772  1.00  0.00    -0.305 N 
ATOM     21  C   UNL     1     -11.061   1.943 -13.130  1.00  0.00    +0.323 C 
ATOM     22  O   UNL     1     -11.732   1.366 -13.974  1.00  0.00    -0.248 OA
ATOM     23  N   UNL     1     -10.151   2.956 -13.395  1.00  0.00    -0.308 N 
ATOM     24  H   UNL     1     -10.344   2.040 -11.208  1.00  0.00    +0.171 HD
ATOM     25  H   UNL     1      -9.850   3.493 -12.595  1.00  0.00    +0.171 HD
BRANCH  23  26
ATOM     26  C   UNL     1      -9.751   3.444 -14.656  1.00  0.00    +0.043 A 
ATOM     27  C   UNL     1     -10.626   4.317 -15.309  1.00  0.00    +0.028 A 
ATOM     28  C   UNL     1      -8.538   3.124 -15.270  1.00  0.00    +0.040 A 
ATOM     29  C   UNL     1     -10.298   4.848 -16.558  1.00  0.00    +0.023 A 
ATOM     30  C   UNL     1      -8.189   3.652 -16.533  1.00  0.00    +0.076 A 
ATOM     31  C   UNL     1      -9.087   4.516 -17.169  1.00  0.00    +0.053 A 
ATOM     32 Cl   UNL     1      -8.757   5.213 -18.713  1.00  0.00    -0.084 Cl
BRANCH  30  33
ATOM     33  C   UNL     1      -6.875   3.284 -17.165  1.00  0.00    +0.417 C 
ATOM     34  F   UNL     1      -7.019   2.580 -18.322  1.00  0.00    -0.166 F 
ATOM     35  F   UNL     1      -6.087   2.506 -16.366  1.00  0.00    -0.166 F 
ATOM     36  F   UNL     1      -6.110   4.370 -17.469  1.00  0.00    -0.166 F 
ENDBRANCH  30  33
ENDBRANCH  23  26
ENDBRANCH   4  20
TORSDOF 6
ENDMDL
MODEL 7
REMARK VINA RESULT:    -8.735      4.659      6.338
REMARK INTER + INTRA:         -12.857
REMARK INTER:                 -12.499
REMARK INTRA:                  -0.358
REMARK UNBOUND:                -1.057
REMARK SMILES CNC(=O)c1cc(Oc2ccc(NC(=O)Nc3ccc(Cl)c(C(F)(F)F)c3)c(F)c2)ccn1
REMARK SMILES IDX 9 1 10 2 11 3 12 4 28 5 29 6 30 7 8 8 7 9 5 10 6 11 33 12
REMARK SMILES IDX 32 13 31 14 3 15 2 16 4 17 1 18 13 20 14 21 15 22 16 23
REMARK SMILES IDX 17 26 18 27 27 28 19 29 22 30 20 31 21 32 23 33 24 34 25 35
REMARK SMILES IDX 26 36
REMARK H PARENT 2 19 13 24 16 25
ROOT
ATOM      1  C   UNL     1     -10.360   0.010 -12.435  1.00  0.00    +0.130 A 
ATOM      2  C   UNL     1      -9.770   0.058 -13.699  1.00  0.00    +0.049 A 
ATOM      3  C   UNL     1     -10.038   1.124 -14.564  1.00  0.00    +0.033 A 
ATOM      4  C   UNL     1     -10.910   2.141 -14.174  1.00  0.00    +0.079 A 
ATOM      5  C   UNL     1     -11.516   2.055 -12.912  1.00  0.00    +0.150 A 
ATOM      6  F   UNL     1     -12.374   3.015 -12.529  1.00  0.00    -0.205 F 
ATOM      7  C   UNL     1     -11.256   1.002 -12.042  1.00  0.00    +0.088 A 
ENDROOT
BRANCH   1   8
ATOM      8  O   UNL     1     -10.076  -1.082 -11.647  1.00  0.00    -0.457 OA
BRANCH   8   9
ATOM      9  C   UNL     1     -11.148  -1.810 -11.183  1.00  0.00    +0.131 A 
ATOM     10  C   UNL     1     -13.051  -1.927  -9.774  1.00  0.00    +0.131 A 
ATOM     11  C   UNL     1     -11.951  -1.212 -10.221  1.00  0.00    +0.081 A 
ATOM     12  N   UNL     1     -13.392  -3.167 -10.230  1.00  0.00    -0.251 NA
ATOM     13  C   UNL     1     -12.598  -3.698 -11.185  1.00  0.00    +0.116 A 
ATOM     14  C   UNL     1     -11.478  -3.064 -11.694  1.00  0.00    +0.067 A 
BRANCH  10  15
ATOM     15  C   UNL     1     -13.941  -1.340  -8.722  1.00  0.00    +0.269 C 
ATOM     16  N   UNL     1     -15.234  -1.821  -8.741  1.00  0.00    -0.354 N 
ATOM     17  O   UNL     1     -13.524  -0.514  -7.917  1.00  0.00    -0.268 OA
ATOM     18  C   UNL     1     -16.201  -1.474  -7.736  1.00  0.00    +0.143 C 
ATOM     19  H   UNL     1     -15.418  -2.577  -9.395  1.00  0.00    +0.163 HD
ENDBRANCH  10  15
ENDBRANCH   8   9
ENDBRANCH   1   8
BRANCH   4  20
ATOM     20  N   UNL     1     -11.253   3.253 -14.974  1.00  0.00    -0.305 N 
ATOM     21  C   UNL     1     -10.393   4.098 -15.655  1.00  0.00    +0.323 C 
ATOM     22  O   UNL     1      -9.173   4.050 -15.593  1.00  0.00    -0.248 OA
ATOM     23  N   UNL     1     -11.114   5.005 -16.417  1.00  0.00    -0.308 N 
ATOM     24  H   UNL     1     -12.222   3.534 -14.912  1.00  0.00    +0.171 HD
ATOM     25  H   UNL     1     -12.088   4.782 -16.556  1.00  0.00    +0.171 HD
BRANCH  23  26
ATOM     26  C   UNL     1     -10.611   6.085 -17.172  1.00  0.00    +0.043 A 
ATOM     27  C   UNL     1      -9.984   7.118 -16.469  1.00  0.00    +0.028 A 
ATOM     28  C   UNL     1     -10.684   6.167 -18.565  1.00  0.00    +0.040 A 
ATOM     29  C   UNL     1      -9.455   8.218 -17.147  1.00  0.00    +0.023 A 
ATOM     30  C   UNL     1     -10.154   7.271 -19.267  1.00  0.00    +0.076 A 
ATOM     31  C   UNL     1      -9.541   8.297 -18.539  1.00  0.00    +0.053 A 
ATOM     32 Cl   UNL     1      -8.862   9.689 -19.300  1.00  0.00    -0.084 Cl
BRANCH  30  33
ATOM     33  C   UNL     1     -10.253   7.327 -20.767  1.00  0.00    +0.417 C 
ATOM     34  F   UNL     1      -9.038   7.398 -21.379  1.00  0.00    -0.166 F 
ATOM     35  F   UNL     1     -10.951   8.407 -21.225  1.00  0.00    -0.166 F 
ATOM     36  F   UNL     1     -10.887   6.243 -21.297  1.00  0.00    -0.166 F 
ENDBRANCH  30  33
ENDBRANCH  23  26
ENDBRANCH   4  20
TORSDOF 6
ENDMDL
MODEL 8
REMARK VINA RESULT:    -8.699      7.099      9.047
REMARK INTER + INTRA:         -12.808
REMARK INTER:                 -11.786
REMARK INTRA:                  -1.022
REMARK UNBOUND:                -1.057
REMARK SMILES CNC(=O)c1cc(Oc2ccc(NC(=O)Nc3ccc(Cl)c(C(F)(F)F)c3)c(F)c2)ccn1
REMARK SMILES IDX 9 1 10 2 11 3 12 4 28 5 29 6 30 7 8 8 7 9 5 10 6 11 33 12
REMARK SMILES IDX 32 13 31 14 3 15 2 16 4 17 1 18 13 20 14 21 15 22 16 23
REMARK SMILES IDX 17 26 18 27 27 28 19 29 22 30 20 31 21 32 23 33 24 34 25 35
REMARK SMILES IDX 26 36
REMARK H PARENT 2 19 13 24 16 25
ROOT
ATOM      1  C   UNL     1     -13.777  -0.856  -9.818  1.00  0.00    +0.130 A 
ATOM      2  C   UNL     1     -12.504  -1.357 -10.093  1.00  0.00    +0.049 A 
ATOM      3  C   UNL     1     -11.562  -0.565 -10.760  1.00  0.00    +0.033 A 
ATOM      4  C   UNL     1     -11.896   0.726 -11.168  1.00  0.00    +0.079 A 
ATOM      5  C   UNL     1     -13.192   1.196 -10.910  1.00  0.00    +0.150 A 
ATOM      6  F   UNL     1     -13.535   2.430 -11.314  1.00  0.00    -0.205 F 
ATOM      7  C   UNL     1     -14.136   0.421 -10.245  1.00  0.00    +0.088 A 
ENDROOT
BRANCH   1   8
ATOM      8  O   UNL     1     -14.663  -1.698  -9.186  1.00  0.00    -0.457 OA
BRANCH   8   9
ATOM      9  C   UNL     1     -14.913  -1.453  -7.854  1.00  0.00    +0.131 A 
ATOM     10  C   UNL     1     -14.063  -0.947  -5.700  1.00  0.00    +0.131 A 
ATOM     11  C   UNL     1     -13.816  -1.227  -7.035  1.00  0.00    +0.081 A 
ATOM     12  N   UNL     1     -15.312  -0.870  -5.155  1.00  0.00    -0.251 NA
ATOM     13  C   UNL     1     -16.350  -1.070  -5.995  1.00  0.00    +0.116 A 
ATOM     14  C   UNL     1     -16.205  -1.356  -7.341  1.00  0.00    +0.067 A 
BRANCH  10  15
ATOM     15  C   UNL     1     -12.916  -0.715  -4.765  1.00  0.00    +0.269 C 
ATOM     16  N   UNL     1     -11.749  -1.352  -5.131  1.00  0.00    -0.354 N 
ATOM     17  O   UNL     1     -13.031  -0.002  -3.774  1.00  0.00    -0.268 OA
ATOM     18  C   UNL     1     -10.508  -1.153  -4.433  1.00  0.00    +0.143 C 
ATOM     19  H   UNL     1     -11.765  -1.828  -6.029  1.00  0.00    +0.163 HD
ENDBRANCH  10  15
ENDBRANCH   8   9
ENDBRANCH   1   8
BRANCH   4  20
ATOM     20  N   UNL     1     -11.023   1.599 -11.854  1.00  0.00    -0.305 N 
ATOM     21  C   UNL     1     -11.035   1.914 -13.202  1.00  0.00    +0.323 C 
ATOM     22  O   UNL     1     -11.775   1.404 -14.031  1.00  0.00    -0.248 OA
ATOM     23  N   UNL     1     -10.088   2.890 -13.476  1.00  0.00    -0.308 N 
ATOM     24  H   UNL     1     -10.221   1.901 -11.317  1.00  0.00    +0.171 HD
ATOM     25  H   UNL     1      -9.722   3.381 -12.673  1.00  0.00    +0.171 HD
BRANCH  23  26
ATOM     26  C   UNL     1      -9.726   3.407 -14.737  1.00  0.00    +0.043 A 
ATOM     27  C   UNL     1      -8.580   2.880 -15.338  1.00  0.00    +0.028 A 
ATOM     28  C   UNL     1     -10.453   4.387 -15.419  1.00  0.00    +0.040 A 
ATOM     29  C   UNL     1      -8.161   3.335 -16.589  1.00  0.00    +0.023 A 
ATOM     30  C   UNL     1     -10.045   4.858 -16.685  1.00  0.00    +0.076 A 
ATOM     31  C   UNL     1      -8.888   4.322 -17.260  1.00  0.00    +0.053 A 
ATOM     32 Cl   UNL     1      -8.303   4.830 -18.802  1.00  0.00    -0.084 Cl
BRANCH  30  33
ATOM     33  C   UNL     1     -10.850   5.916 -17.389  1.00  0.00    +0.417 C 
ATOM     34  F   UNL     1     -10.170   7.085 -17.551  1.00  0.00    -0.166 F 
ATOM     35  F   UNL     1     -11.996   6.255 -16.729  1.00  0.00    -0.166 F 
ATOM     36  F   UNL     1     -11.256   5.534 -18.632  1.00  0.00    -0.166 F 
ENDBRANCH  30  33
ENDBRANCH  23  26
ENDBRANCH   4  20
TORSDOF 6
ENDMDL
MODEL 9
REMARK VINA RESULT:    -8.498      5.406      6.303
REMARK INTER + INTRA:         -12.537
REMARK INTER:                 -12.252
REMARK INTRA:                  -0.285
REMARK UNBOUND:                -1.057
REMARK SMILES CNC(=O)c1cc(Oc2ccc(NC(=O)Nc3ccc(Cl)c(C(F)(F)F)c3)c(F)c2)ccn1
REMARK SMILES IDX 9 1 10 2 11 3 12 4 28 5 29 6 30 7 8 8 7 9 5 10 6 11 33 12
REMARK SMILES IDX 32 13 31 14 3 15 2 16 4 17 1 18 13 20 14 21 15 22 16 23
REMARK SMILES IDX 17 26 18 27 27 28 19 29 22 30 20 31 21 32 23 33 24 34 25 35
REMARK SMILES IDX 26 36
REMARK H PARENT 2 19 13 24 16 25
ROOT
ATOM      1  C   UNL     1     -12.486   1.709 -11.906  1.00  0.00    +0.130 A 
ATOM      2  C   UNL     1     -11.138   1.552 -12.228  1.00  0.00    +0.049 A 
ATOM      3  C   UNL     1     -10.627   2.089 -13.415  1.00  0.00    +0.033 A 
ATOM      4  C   UNL     1     -11.468   2.774 -14.292  1.00  0.00    +0.079 A 
ATOM      5  C   UNL     1     -12.826   2.890 -13.963  1.00  0.00    +0.150 A 
ATOM      6  F   UNL     1     -13.654   3.529 -14.807  1.00  0.00    -0.205 F 
ATOM      7  C   UNL     1     -13.345   2.364 -12.786  1.00  0.00    +0.088 A 
ENDROOT
BRANCH   1   8
ATOM      8  O   UNL     1     -12.927   1.130 -10.738  1.00  0.00    -0.457 OA
BRANCH   8   9
ATOM      9  C   UNL     1     -12.135   0.145 -10.193  1.00  0.00    +0.131 A 
ATOM     10  C   UNL     1     -10.746  -0.572  -8.410  1.00  0.00    +0.131 A 
ATOM     11  C   UNL     1     -11.519   0.427  -8.981  1.00  0.00    +0.081 A 
ATOM     12  N   UNL     1     -10.570  -1.809  -8.961  1.00  0.00    -0.251 NA
ATOM     13  C   UNL     1     -11.211  -2.048 -10.125  1.00  0.00    +0.116 A 
ATOM     14  C   UNL     1     -12.002  -1.115 -10.772  1.00  0.00    +0.067 A 
BRANCH  10  15
ATOM     15  C   UNL     1     -10.040  -0.317  -7.114  1.00  0.00    +0.269 C 
ATOM     16  N   UNL     1      -8.673  -0.184  -7.230  1.00  0.00    -0.354 N 
ATOM     17  O   UNL     1     -10.655  -0.225  -6.057  1.00  0.00    -0.268 OA
ATOM     18  C   UNL     1      -7.836   0.186  -6.122  1.00  0.00    +0.143 C 
ATOM     19  H   UNL     1      -8.305  -0.182  -8.178  1.00  0.00    +0.163 HD
ENDBRANCH  10  15
ENDBRANCH   8   9
ENDBRANCH   1   8
BRANCH   4  20
ATOM     20  N   UNL     1     -11.055   3.343 -15.517  1.00  0.00    -0.305 N 
ATOM     21  C   UNL     1     -10.838   4.682 -15.792  1.00  0.00    +0.323 C 
ATOM     22  O   UNL     1     -11.058   5.600 -15.014  1.00  0.00    -0.248 OA
ATOM     23  N   UNL     1     -10.336   4.834 -17.076  1.00  0.00    -0.308 N 
ATOM     24  H   UNL     1     -11.066   2.706 -16.302  1.00  0.00    +0.171 HD
ATOM     25  H   UNL     1      -9.986   3.992 -17.511  1.00  0.00    +0.171 HD
BRANCH  23  26
ATOM     26  C   UNL     1     -10.078   6.039 -17.761  1.00  0.00    +0.043 A 
ATOM     27  C   UNL     1      -9.527   7.089 -17.021  1.00  0.00    +0.028 A 
ATOM     28  C   UNL     1     -10.319   6.231 -19.124  1.00  0.00    +0.040 A 
ATOM     29  C   UNL     1      -9.237   8.311 -17.631  1.00  0.00    +0.023 A 
ATOM     30  C   UNL     1     -10.032   7.460 -19.757  1.00  0.00    +0.076 A 
ATOM     31  C   UNL     1      -9.490   8.498 -18.992  1.00  0.00    +0.053 A 
ATOM     32 Cl   UNL     1      -9.105  10.038 -19.668  1.00  0.00    -0.084 Cl
BRANCH  30  33
ATOM     33  C   UNL     1     -10.307   7.632 -21.226  1.00  0.00    +0.417 C 
ATOM     34  F   UNL     1     -10.732   6.485 -21.826  1.00  0.00    -0.166 F 
ATOM     35  F   UNL     1      -9.214   8.029 -21.941  1.00  0.00    -0.166 F 
ATOM     36  F   UNL     1     -11.259   8.573 -21.481  1.00  0.00    -0.166 F 
ENDBRANCH  30  33
ENDBRANCH  23  26
ENDBRANCH   4  20
TORSDOF 6
ENDMDL
MODEL 10
REMARK VINA RESULT:    -8.470      8.354     10.578
REMARK INTER + INTRA:         -12.499
REMARK INTER:                 -12.139
REMARK INTRA:                  -0.360
REMARK UNBOUND:                -1.057
REMARK SMILES CNC(=O)c1cc(Oc2ccc(NC(=O)Nc3ccc(Cl)c(C(F)(F)F)c3)c(F)c2)ccn1
REMARK SMILES IDX 9 1 10 2 11 3 12 4 28 5 29 6 30 7 8 8 7 9 5 10 6 11 33 12
REMARK SMILES IDX 32 13 31 14 3 15 2 16 4 17 1 18 13 20 14 21 15 22 16 23
REMARK SMILES IDX 17 26 18 27 27 28 19 29 22 30 20 31 21 32 23 33 24 34 25 35
REMARK SMILES IDX 26 36
REMARK H PARENT 2 19 13 24 16 25
ROOT
ATOM      1  C   UNL     1     -14.270   0.677  -8.550  1.00  0.00    +0.130 A 
ATOM      2  C   UNL     1     -14.754   1.176  -9.760  1.00  0.00    +0.049 A 
ATOM      3  C   UNL     1     -13.926   1.220 -10.888  1.00  0.00    +0.033 A 
ATOM      4  C   UNL     1     -12.606   0.777 -10.806  1.00  0.00    +0.079 A 
ATOM      5  C   UNL     1     -12.133   0.311  -9.571  1.00  0.00    +0.150 A 
ATOM      6  F   UNL     1     -10.857  -0.100  -9.470  1.00  0.00    -0.205 F 
ATOM      7  C   UNL     1     -12.945   0.259  -8.444  1.00  0.00    +0.088 A 
ENDROOT
BRANCH   1   8
ATOM      8  O   UNL     1     -15.128   0.690  -7.474  1.00  0.00    -0.457 OA
BRANCH   8   9
ATOM      9  C   UNL     1     -15.965  -0.393  -7.331  1.00  0.00    +0.131 A 
ATOM     10  C   UNL     1     -18.161  -1.215  -6.980  1.00  0.00    +0.131 A 
ATOM     11  C   UNL     1     -17.307  -0.129  -7.093  1.00  0.00    +0.081 A 
ATOM     12  N   UNL     1     -17.763  -2.514  -7.102  1.00  0.00    -0.251 NA
ATOM     13  C   UNL     1     -16.454  -2.722  -7.362  1.00  0.00    +0.116 A 
ATOM     14  C   UNL     1     -15.524  -1.705  -7.489  1.00  0.00    +0.067 A 
BRANCH  10  15
ATOM     15  C   UNL     1     -19.616  -0.990  -6.702  1.00  0.00    +0.269 C 
ATOM     16  N   UNL     1     -20.315  -2.136  -6.385  1.00  0.00    -0.354 N 
ATOM     17  O   UNL     1     -20.112   0.130  -6.747  1.00  0.00    -0.268 OA
ATOM     18  C   UNL     1     -21.689  -2.110  -5.966  1.00  0.00    +0.143 C 
ATOM     19  H   UNL     1     -19.761  -2.982  -6.285  1.00  0.00    +0.163 HD
ENDBRANCH  10  15
ENDBRANCH   8   9
ENDBRANCH   1   8
BRANCH   4  20
ATOM     20  N   UNL     1     -11.690   0.789 -11.881  1.00  0.00    -0.305 N 
ATOM     21  C   UNL     1     -11.416   1.837 -12.743  1.00  0.00    +0.323 C 
ATOM     22  O   UNL     1     -12.005   2.909 -12.747  1.00  0.00    -0.248 OA
ATOM     23  N   UNL     1     -10.380   1.496 -13.599  1.00  0.00    -0.308 N 
ATOM     24  H   UNL     1     -11.313  -0.118 -12.122  1.00  0.00    +0.171 HD
ATOM     25  H   UNL     1      -9.840   0.686 -13.331  1.00  0.00    +0.171 HD
BRANCH  23  26
ATOM     26  C   UNL     1      -9.874   2.249 -14.679  1.00  0.00    +0.043 A 
ATOM     27  C   UNL     1      -8.820   1.692 -15.408  1.00  0.00    +0.028 A 
ATOM     28  C   UNL     1     -10.376   3.494 -15.067  1.00  0.00    +0.040 A 
ATOM     29  C   UNL     1      -8.270   2.374 -16.495  1.00  0.00    +0.023 A 
ATOM     30  C   UNL     1      -9.833   4.198 -16.164  1.00  0.00    +0.076 A 
ATOM     31  C   UNL     1      -8.772   3.623 -16.871  1.00  0.00    +0.053 A 
ATOM     32 Cl   UNL     1      -8.036   4.400 -18.225  1.00  0.00    -0.084 Cl
BRANCH  30  33
ATOM     33  C   UNL     1     -10.397   5.538 -16.552  1.00  0.00    +0.417 C 
ATOM     34  F   UNL     1     -10.892   5.560 -17.820  1.00  0.00    -0.166 F 
ATOM     35  F   UNL     1      -9.479   6.547 -16.506  1.00  0.00    -0.166 F 
ATOM     36  F   UNL     1     -11.411   5.942 -15.737  1.00  0.00    -0.166 F 
ENDBRANCH  30  33
ENDBRANCH  23  26
ENDBRANCH   4  20
TORSDOF 6
ENDMDL
