MODEL 1
REMARK VINA RESULT:   -12.801      0.000      0.000
REMARK INTER + INTRA:         -17.900
REMARK INTER:                 -17.291
REMARK INTRA:                  -0.609
REMARK UNBOUND:                -0.609
REMARK SMILES Cc1ccc(C(=O)Nc2ccc(CN3CCN(C)CC3)c(C(F)(F)F)c2)cc1C#Cc1cnc2cccnn12
REMARK SMILES IDX 9 1 10 2 11 3 12 4 21 5 26 6 8 7 6 8 7 9 5 11 2 12 3 13
REMARK SMILES IDX 28 14 4 15 27 16 29 17 1 18 30 19 31 20 32 21 39 22 33 23
REMARK SMILES IDX 38 24 34 25 37 26 35 27 36 28 22 29 23 30 24 31 25 32 13 33
REMARK SMILES IDX 14 34 15 35 20 36 16 37 19 38 17 39 18 40
REMARK H PARENT 8 10
ROOT
ATOM      1  C   UNL     1     -37.688 156.184   4.615  1.00  0.00    +0.042 A 
ATOM      2  C   UNL     1     -38.348 155.358   5.526  1.00  0.00    +0.026 A 
ATOM      3  C   UNL     1     -37.628 154.532   6.391  1.00  0.00    +0.008 A 
ATOM      4  C   UNL     1     -36.224 154.509   6.366  1.00  0.00    -0.022 A 
ATOM      5  C   UNL     1     -35.542 155.332   5.441  1.00  0.00    +0.062 A 
ATOM      6  C   UNL     1     -36.293 156.168   4.585  1.00  0.00    +0.039 A 
ENDROOT
BRANCH   1   7
ATOM      7  N   UNL     1     -38.489 156.997   3.786  1.00  0.00    -0.322 N 
ATOM      8  C   UNL     1     -38.066 157.853   2.785  1.00  0.00    +0.255 C 
ATOM      9  O   UNL     1     -36.917 158.010   2.392  1.00  0.00    -0.269 OA
ATOM     10  H   UNL     1     -39.489 156.884   3.899  1.00  0.00    +0.170 HD
BRANCH   8  11
ATOM     11  C   UNL     1     -39.153 158.615   2.109  1.00  0.00    +0.041 A 
ATOM     12  C   UNL     1     -41.263 160.014   0.878  1.00  0.00    -0.035 A 
ATOM     13  C   UNL     1     -41.523 159.053   1.867  1.00  0.00    +0.005 A 
ATOM     14  C   UNL     1     -39.931 160.254   0.497  1.00  0.00    +0.029 A 
ATOM     15  C   UNL     1     -40.477 158.357   2.476  1.00  0.00    +0.014 A 
ATOM     16  C   UNL     1     -38.882 159.553   1.106  1.00  0.00    +0.031 A 
ATOM     17  C   UNL     1     -39.603 161.208  -0.521  1.00  0.00    -0.060 C 
ATOM     18  C   UNL     1     -42.410 160.746   0.237  1.00  0.00    +0.045 C 
BRANCH  17  19
ATOM     19  C   UNL     1     -39.310 162.004  -1.371  1.00  0.00    -0.040 C 
ATOM     20  C   UNL     1     -38.965 162.936  -2.384  1.00  0.00    +0.135 A 
ATOM     21  C   UNL     1     -38.785 164.297  -2.272  1.00  0.00    +0.151 A 
ATOM     22  N   UNL     1     -38.742 162.649  -3.709  1.00  0.00    -0.205 N 
ATOM     23  N   UNL     1     -38.459 164.860  -3.482  1.00  0.00    -0.234 NA
ATOM     24  N   UNL     1     -38.805 161.410  -4.296  1.00  0.00    -0.174 NA
ATOM     25  C   UNL     1     -38.442 163.854  -4.331  1.00  0.00    +0.154 A 
ATOM     26  C   UNL     1     -38.554 161.445  -5.567  1.00  0.00    +0.134 C 
ATOM     27  C   UNL     1     -38.176 163.820  -5.719  1.00  0.00    +0.051 C 
ATOM     28  C   UNL     1     -38.223 162.649  -6.366  1.00  0.00    +0.026 C 
ENDBRANCH  17  19
ENDBRANCH   8  11
ENDBRANCH   1   7
BRANCH   5  29
ATOM     29  C   UNL     1     -34.028 155.389   5.353  1.00  0.00    +0.416 C 
ATOM     30  F   UNL     1     -33.594 156.167   4.315  1.00  0.00    -0.166 F 
ATOM     31  F   UNL     1     -33.436 154.180   5.141  1.00  0.00    -0.166 F 
ATOM     32  F   UNL     1     -33.445 155.920   6.463  1.00  0.00    -0.166 F 
ENDBRANCH   5  29
BRANCH   4  33
ATOM     33  C   UNL     1     -35.493 153.606   7.343  1.00  0.00    +0.120 C 
BRANCH  33  34
ATOM     34  N   UNL     1     -35.812 152.192   7.142  1.00  0.00    -0.297 NA
ATOM     35  C   UNL     1     -35.166 151.339   8.148  1.00  0.00    +0.100 C 
ATOM     36  C   UNL     1     -35.483 151.719   5.780  1.00  0.00    +0.100 C 
ATOM     37  C   UNL     1     -35.591 149.851   8.031  1.00  0.00    +0.099 C 
ATOM     38  C   UNL     1     -35.192 150.198   5.673  1.00  0.00    +0.099 C 
ATOM     39  N   UNL     1     -35.870 149.349   6.668  1.00  0.00    -0.304 NA
ATOM     40  C   UNL     1     -37.312 149.307   6.415  1.00  0.00    +0.105 C 
ENDBRANCH  33  34
ENDBRANCH   4  33
TORSDOF 6
ENDMDL
MODEL 2
REMARK VINA RESULT:   -11.886      4.868     12.825
REMARK INTER + INTRA:         -16.664
REMARK INTER:                 -16.277
REMARK INTRA:                  -0.388
REMARK UNBOUND:                -0.609
REMARK SMILES Cc1ccc(C(=O)Nc2ccc(CN3CCN(C)CC3)c(C(F)(F)F)c2)cc1C#Cc1cnc2cccnn12
REMARK SMILES IDX 9 1 10 2 11 3 12 4 21 5 26 6 8 7 6 8 7 9 5 11 2 12 3 13
REMARK SMILES IDX 28 14 4 15 27 16 29 17 1 18 30 19 31 20 32 21 39 22 33 23
REMARK SMILES IDX 38 24 34 25 37 26 35 27 36 28 22 29 23 30 24 31 25 32 13 33
REMARK SMILES IDX 14 34 15 35 20 36 16 37 19 38 17 39 18 40
REMARK H PARENT 8 10
ROOT
ATOM      1  C   UNL     1     -39.089 161.511  -3.770  1.00  0.00    +0.042 A 
ATOM      2  C   UNL     1     -39.162 160.672  -4.883  1.00  0.00    +0.026 A 
ATOM      3  C   UNL     1     -38.769 161.124  -6.144  1.00  0.00    +0.008 A 
ATOM      4  C   UNL     1     -38.291 162.433  -6.326  1.00  0.00    -0.022 A 
ATOM      5  C   UNL     1     -38.221 163.297  -5.209  1.00  0.00    +0.062 A 
ATOM      6  C   UNL     1     -38.614 162.812  -3.941  1.00  0.00    +0.039 A 
ENDROOT
BRANCH   1   7
ATOM      7  N   UNL     1     -39.495 160.973  -2.531  1.00  0.00    -0.322 N 
ATOM      8  C   UNL     1     -38.818 160.049  -1.754  1.00  0.00    +0.255 C 
ATOM      9  O   UNL     1     -37.707 159.582  -1.970  1.00  0.00    -0.269 OA
ATOM     10  H   UNL     1     -40.346 161.360  -2.144  1.00  0.00    +0.170 HD
BRANCH   8  11
ATOM     11  C   UNL     1     -39.526 159.638  -0.509  1.00  0.00    +0.041 A 
ATOM     12  C   UNL     1     -40.933 158.893   1.813  1.00  0.00    -0.035 A 
ATOM     13  C   UNL     1     -41.581 159.579   0.773  1.00  0.00    +0.005 A 
ATOM     14  C   UNL     1     -39.565 158.599   1.685  1.00  0.00    +0.029 A 
ATOM     15  C   UNL     1     -40.882 159.952  -0.377  1.00  0.00    +0.014 A 
ATOM     16  C   UNL     1     -38.864 158.976   0.531  1.00  0.00    +0.031 A 
ATOM     17  C   UNL     1     -38.844 157.918   2.719  1.00  0.00    -0.060 C 
ATOM     18  C   UNL     1     -41.711 158.507   3.041  1.00  0.00    +0.045 C 
BRANCH  17  19
ATOM     19  C   UNL     1     -38.225 157.348   3.576  1.00  0.00    -0.040 C 
ATOM     20  C   UNL     1     -37.484 156.682   4.587  1.00  0.00    +0.135 A 
ATOM     21  C   UNL     1     -37.910 155.703   5.457  1.00  0.00    +0.151 A 
ATOM     22  N   UNL     1     -36.164 156.897   4.900  1.00  0.00    -0.205 N 
ATOM     23  N   UNL     1     -36.897 155.307   6.297  1.00  0.00    -0.234 NA
ATOM     24  N   UNL     1     -35.317 157.789   4.292  1.00  0.00    -0.174 NA
ATOM     25  C   UNL     1     -35.860 156.038   5.949  1.00  0.00    +0.154 A 
ATOM     26  C   UNL     1     -34.127 157.780   4.804  1.00  0.00    +0.134 C 
ATOM     27  C   UNL     1     -34.543 156.078   6.459  1.00  0.00    +0.051 C 
ATOM     28  C   UNL     1     -33.657 156.926   5.922  1.00  0.00    +0.026 C 
ENDBRANCH  17  19
ENDBRANCH   8  11
ENDBRANCH   1   7
BRANCH   5  29
ATOM     29  C   UNL     1     -37.702 164.720  -5.303  1.00  0.00    +0.416 C 
ATOM     30  F   UNL     1     -38.301 165.556  -4.402  1.00  0.00    -0.166 F 
ATOM     31  F   UNL     1     -37.918 165.313  -6.511  1.00  0.00    -0.166 F 
ATOM     32  F   UNL     1     -36.368 164.822  -5.051  1.00  0.00    -0.166 F 
ENDBRANCH   5  29
BRANCH   4  33
ATOM     33  C   UNL     1     -37.858 162.863  -7.715  1.00  0.00    +0.120 C 
BRANCH  33  34
ATOM     34  N   UNL     1     -37.595 161.724  -8.595  1.00  0.00    -0.297 NA
ATOM     35  C   UNL     1     -36.380 161.000  -8.200  1.00  0.00    +0.100 C 
ATOM     36  C   UNL     1     -37.523 162.107 -10.021  1.00  0.00    +0.100 C 
ATOM     37  C   UNL     1     -36.151 159.715  -9.040  1.00  0.00    +0.099 C 
ATOM     38  C   UNL     1     -36.664 161.163 -10.905  1.00  0.00    +0.099 C 
ATOM     39  N   UNL     1     -36.587 159.763 -10.453  1.00  0.00    -0.304 NA
ATOM     40  C   UNL     1     -37.879 159.093 -10.620  1.00  0.00    +0.105 C 
ENDBRANCH  33  34
ENDBRANCH   4  33
TORSDOF 6
ENDMDL
MODEL 3
REMARK VINA RESULT:   -11.196      5.071     13.145
REMARK INTER + INTRA:         -15.732
REMARK INTER:                 -14.944
REMARK INTRA:                  -0.788
REMARK UNBOUND:                -0.609
REMARK SMILES Cc1ccc(C(=O)Nc2ccc(CN3CCN(C)CC3)c(C(F)(F)F)c2)cc1C#Cc1cnc2cccnn12
REMARK SMILES IDX 9 1 10 2 11 3 12 4 21 5 26 6 8 7 6 8 7 9 5 11 2 12 3 13
REMARK SMILES IDX 28 14 4 15 27 16 29 17 1 18 30 19 31 20 32 21 39 22 33 23
REMARK SMILES IDX 38 24 34 25 37 26 35 27 36 28 22 29 23 30 24 31 25 32 13 33
REMARK SMILES IDX 14 34 15 35 20 36 16 37 19 38 17 39 18 40
REMARK H PARENT 8 10
ROOT
ATOM      1  C   UNL     1     -38.714 161.650  -3.496  1.00  0.00    +0.042 A 
ATOM      2  C   UNL     1     -37.871 160.871  -4.290  1.00  0.00    +0.026 A 
ATOM      3  C   UNL     1     -37.253 161.413  -5.419  1.00  0.00    +0.008 A 
ATOM      4  C   UNL     1     -37.463 162.754  -5.783  1.00  0.00    -0.022 A 
ATOM      5  C   UNL     1     -38.322 163.551  -4.994  1.00  0.00    +0.062 A 
ATOM      6  C   UNL     1     -38.926 162.983  -3.850  1.00  0.00    +0.039 A 
ENDROOT
BRANCH   1   7
ATOM      7  N   UNL     1     -39.288 161.029  -2.367  1.00  0.00    -0.322 N 
ATOM      8  C   UNL     1     -39.326 161.510  -1.070  1.00  0.00    +0.255 C 
ATOM      9  O   UNL     1     -38.924 162.599  -0.680  1.00  0.00    -0.269 OA
ATOM     10  H   UNL     1     -39.784 160.164  -2.549  1.00  0.00    +0.170 HD
BRANCH   8  11
ATOM     11  C   UNL     1     -39.969 160.599  -0.082  1.00  0.00    +0.041 A 
ATOM     12  C   UNL     1     -41.256 158.908   1.764  1.00  0.00    -0.035 A 
ATOM     13  C   UNL     1     -42.000 159.779   0.953  1.00  0.00    +0.005 A 
ATOM     14  C   UNL     1     -39.855 158.906   1.654  1.00  0.00    +0.029 A 
ATOM     15  C   UNL     1     -41.361 160.621   0.040  1.00  0.00    +0.014 A 
ATOM     16  C   UNL     1     -39.214 159.753   0.739  1.00  0.00    +0.031 A 
ATOM     17  C   UNL     1     -39.040 158.053   2.468  1.00  0.00    -0.060 C 
ATOM     18  C   UNL     1     -41.971 158.015   2.741  1.00  0.00    +0.045 C 
BRANCH  17  19
ATOM     19  C   UNL     1     -38.342 157.345   3.141  1.00  0.00    -0.040 C 
ATOM     20  C   UNL     1     -37.510 156.517   3.940  1.00  0.00    +0.135 A 
ATOM     21  C   UNL     1     -37.760 155.246   4.407  1.00  0.00    +0.151 A 
ATOM     22  N   UNL     1     -36.261 156.839   4.413  1.00  0.00    -0.205 N 
ATOM     23  N   UNL     1     -36.709 154.772   5.154  1.00  0.00    -0.234 NA
ATOM     24  N   UNL     1     -35.585 158.014   4.199  1.00  0.00    -0.174 NA
ATOM     25  C   UNL     1     -35.822 155.744   5.148  1.00  0.00    +0.154 A 
ATOM     26  C   UNL     1     -34.426 158.038   4.776  1.00  0.00    +0.134 C 
ATOM     27  C   UNL     1     -34.546 155.837   5.750  1.00  0.00    +0.051 C 
ATOM     28  C   UNL     1     -33.826 156.954   5.591  1.00  0.00    +0.026 C 
ENDBRANCH  17  19
ENDBRANCH   8  11
ENDBRANCH   1   7
BRANCH   5  29
ATOM     29  C   UNL     1     -38.596 165.013  -5.297  1.00  0.00    +0.416 C 
ATOM     30  F   UNL     1     -39.239 165.188  -6.491  1.00  0.00    -0.166 F 
ATOM     31  F   UNL     1     -37.473 165.780  -5.402  1.00  0.00    -0.166 F 
ATOM     32  F   UNL     1     -39.393 165.614  -4.372  1.00  0.00    -0.166 F 
ENDBRANCH   5  29
BRANCH   4  33
ATOM     33  C   UNL     1     -36.749 163.295  -7.009  1.00  0.00    +0.120 C 
BRANCH  33  34
ATOM     34  N   UNL     1     -37.449 162.968  -8.252  1.00  0.00    -0.297 NA
ATOM     35  C   UNL     1     -36.896 161.764  -8.887  1.00  0.00    +0.100 C 
ATOM     36  C   UNL     1     -37.467 164.093  -9.211  1.00  0.00    +0.100 C 
ATOM     37  C   UNL     1     -37.703 161.326 -10.138  1.00  0.00    +0.099 C 
ATOM     38  C   UNL     1     -37.598 163.674 -10.701  1.00  0.00    +0.099 C 
ATOM     39  N   UNL     1     -38.309 162.407 -10.946  1.00  0.00    -0.304 NA
ATOM     40  C   UNL     1     -39.734 162.547 -10.639  1.00  0.00    +0.105 C 
ENDBRANCH  33  34
ENDBRANCH   4  33
TORSDOF 6
ENDMDL
MODEL 4
REMARK VINA RESULT:   -10.409      4.488      7.384
REMARK INTER + INTRA:         -14.670
REMARK INTER:                 -13.711
REMARK INTRA:                  -0.958
REMARK UNBOUND:                -0.609
REMARK SMILES Cc1ccc(C(=O)Nc2ccc(CN3CCN(C)CC3)c(C(F)(F)F)c2)cc1C#Cc1cnc2cccnn12
REMARK SMILES IDX 9 1 10 2 11 3 12 4 21 5 26 6 8 7 6 8 7 9 5 11 2 12 3 13
REMARK SMILES IDX 28 14 4 15 27 16 29 17 1 18 30 19 31 20 32 21 39 22 33 23
REMARK SMILES IDX 38 24 34 25 37 26 35 27 36 28 22 29 23 30 24 31 25 32 13 33
REMARK SMILES IDX 14 34 15 35 20 36 16 37 19 38 17 39 18 40
REMARK H PARENT 8 10
ROOT
ATOM      1  C   UNL     1     -37.873 150.971   4.736  1.00  0.00    +0.042 A 
ATOM      2  C   UNL     1     -36.777 150.109   4.800  1.00  0.00    +0.026 A 
ATOM      3  C   UNL     1     -36.940 148.734   4.624  1.00  0.00    +0.008 A 
ATOM      4  C   UNL     1     -38.208 148.183   4.378  1.00  0.00    -0.022 A 
ATOM      5  C   UNL     1     -39.329 149.042   4.320  1.00  0.00    +0.062 A 
ATOM      6  C   UNL     1     -39.136 150.432   4.490  1.00  0.00    +0.039 A 
ENDROOT
BRANCH   1   7
ATOM      7  N   UNL     1     -37.620 152.347   4.913  1.00  0.00    -0.322 N 
ATOM      8  C   UNL     1     -37.100 152.970   6.034  1.00  0.00    +0.255 C 
ATOM      9  O   UNL     1     -36.701 152.426   7.056  1.00  0.00    -0.269 OA
ATOM     10  H   UNL     1     -37.778 152.929   4.099  1.00  0.00    +0.170 HD
BRANCH   8  11
ATOM     11  C   UNL     1     -36.989 154.452   5.934  1.00  0.00    +0.041 A 
ATOM     12  C   UNL     1     -36.743 157.254   5.818  1.00  0.00    -0.035 A 
ATOM     13  C   UNL     1     -36.271 156.540   6.931  1.00  0.00    +0.005 A 
ATOM     14  C   UNL     1     -37.359 156.550   4.769  1.00  0.00    +0.029 A 
ATOM     15  C   UNL     1     -36.397 155.151   6.990  1.00  0.00    +0.014 A 
ATOM     16  C   UNL     1     -37.486 155.155   4.830  1.00  0.00    +0.031 A 
ATOM     17  C   UNL     1     -37.877 157.224   3.616  1.00  0.00    -0.060 C 
ATOM     18  C   UNL     1     -36.597 158.751   5.784  1.00  0.00    +0.045 C 
BRANCH  17  19
ATOM     19  C   UNL     1     -38.317 157.773   2.643  1.00  0.00    -0.040 C 
ATOM     20  C   UNL     1     -38.847 158.426   1.499  1.00  0.00    +0.135 A 
ATOM     21  C   UNL     1     -38.240 158.651   0.283  1.00  0.00    +0.151 A 
ATOM     22  N   UNL     1     -40.101 158.975   1.386  1.00  0.00    -0.205 N 
ATOM     23  N   UNL     1     -39.076 159.321  -0.576  1.00  0.00    -0.234 NA
ATOM     24  N   UNL     1     -41.074 158.990   2.353  1.00  0.00    -0.174 NA
ATOM     25  C   UNL     1     -40.186 159.509   0.106  1.00  0.00    +0.154 A 
ATOM     26  C   UNL     1     -42.157 159.586   1.965  1.00  0.00    +0.134 C 
ATOM     27  C   UNL     1     -41.397 160.144  -0.252  1.00  0.00    +0.051 C 
ATOM     28  C   UNL     1     -42.394 160.204   0.639  1.00  0.00    +0.026 C 
ENDBRANCH  17  19
ENDBRANCH   8  11
ENDBRANCH   1   7
BRANCH   5  29
ATOM     29  C   UNL     1     -40.734 148.542   4.041  1.00  0.00    +0.416 C 
ATOM     30  F   UNL     1     -41.638 149.561   3.924  1.00  0.00    -0.166 F 
ATOM     31  F   UNL     1     -41.247 147.745   5.021  1.00  0.00    -0.166 F 
ATOM     32  F   UNL     1     -40.835 147.843   2.877  1.00  0.00    -0.166 F 
ENDBRANCH   5  29
BRANCH   4  33
ATOM     33  C   UNL     1     -38.323 146.683   4.174  1.00  0.00    +0.120 C 
BRANCH  33  34
ATOM     34  N   UNL     1     -37.448 146.197   3.106  1.00  0.00    -0.297 NA
ATOM     35  C   UNL     1     -37.919 146.621   1.781  1.00  0.00    +0.100 C 
ATOM     36  C   UNL     1     -37.265 144.730   3.140  1.00  0.00    +0.100 C 
ATOM     37  C   UNL     1     -36.938 146.226   0.644  1.00  0.00    +0.099 C 
ATOM     38  C   UNL     1     -36.916 144.087   1.770  1.00  0.00    +0.099 C 
ATOM     39  N   UNL     1     -36.198 144.958   0.822  1.00  0.00    -0.304 NA
ATOM     40  C   UNL     1     -34.834 145.215   1.289  1.00  0.00    +0.105 C 
ENDBRANCH  33  34
ENDBRANCH   4  33
TORSDOF 6
ENDMDL
MODEL 5
REMARK VINA RESULT:   -10.339      1.784      2.279
REMARK INTER + INTRA:         -14.575
REMARK INTER:                 -14.021
REMARK INTRA:                  -0.553
REMARK UNBOUND:                -0.609
REMARK SMILES Cc1ccc(C(=O)Nc2ccc(CN3CCN(C)CC3)c(C(F)(F)F)c2)cc1C#Cc1cnc2cccnn12
REMARK SMILES IDX 9 1 10 2 11 3 12 4 21 5 26 6 8 7 6 8 7 9 5 11 2 12 3 13
REMARK SMILES IDX 28 14 4 15 27 16 29 17 1 18 30 19 31 20 32 21 39 22 33 23
REMARK SMILES IDX 38 24 34 25 37 26 35 27 36 28 22 29 23 30 24 31 25 32 13 33
REMARK SMILES IDX 14 34 15 35 20 36 16 37 19 38 17 39 18 40
REMARK H PARENT 8 10
ROOT
ATOM      1  C   UNL     1     -37.566 157.720   4.125  1.00  0.00    +0.042 A 
ATOM      2  C   UNL     1     -37.022 156.481   3.786  1.00  0.00    +0.026 A 
ATOM      3  C   UNL     1     -36.170 155.811   4.667  1.00  0.00    +0.008 A 
ATOM      4  C   UNL     1     -35.840 156.366   5.915  1.00  0.00    -0.022 A 
ATOM      5  C   UNL     1     -36.375 157.625   6.267  1.00  0.00    +0.062 A 
ATOM      6  C   UNL     1     -37.244 158.278   5.363  1.00  0.00    +0.039 A 
ENDROOT
BRANCH   1   7
ATOM      7  N   UNL     1     -38.426 158.324   3.184  1.00  0.00    -0.322 N 
ATOM      8  C   UNL     1     -38.285 158.345   1.808  1.00  0.00    +0.255 C 
ATOM      9  O   UNL     1     -37.419 157.781   1.151  1.00  0.00    -0.269 OA
ATOM     10  H   UNL     1     -39.273 158.729   3.564  1.00  0.00    +0.170 HD
BRANCH   8  11
ATOM     11  C   UNL     1     -39.340 159.104   1.081  1.00  0.00    +0.041 A 
ATOM     12  C   UNL     1     -41.390 160.503  -0.249  1.00  0.00    -0.035 A 
ATOM     13  C   UNL     1     -41.694 159.586   0.770  1.00  0.00    +0.005 A 
ATOM     14  C   UNL     1     -40.045 160.699  -0.608  1.00  0.00    +0.029 A 
ATOM     15  C   UNL     1     -40.677 158.889   1.426  1.00  0.00    +0.014 A 
ATOM     16  C   UNL     1     -39.026 159.998   0.050  1.00  0.00    +0.031 A 
ATOM     17  C   UNL     1     -39.674 161.608  -1.652  1.00  0.00    -0.060 C 
ATOM     18  C   UNL     1     -42.506 161.237  -0.941  1.00  0.00    +0.045 C 
BRANCH  17  19
ATOM     19  C   UNL     1     -39.344 162.364  -2.524  1.00  0.00    -0.040 C 
ATOM     20  C   UNL     1     -38.955 163.250  -3.563  1.00  0.00    +0.135 A 
ATOM     21  C   UNL     1     -38.856 164.624  -3.526  1.00  0.00    +0.151 A 
ATOM     22  N   UNL     1     -38.595 162.894  -4.840  1.00  0.00    -0.205 N 
ATOM     23  N   UNL     1     -38.448 165.128  -4.738  1.00  0.00    -0.234 NA
ATOM     24  N   UNL     1     -38.540 161.620  -5.347  1.00  0.00    -0.174 NA
ATOM     25  C   UNL     1     -38.301 164.074  -5.513  1.00  0.00    +0.154 A 
ATOM     26  C   UNL     1     -38.174 161.590  -6.589  1.00  0.00    +0.134 C 
ATOM     27  C   UNL     1     -37.906 163.968  -6.865  1.00  0.00    +0.051 C 
ATOM     28  C   UNL     1     -37.833 162.759  -7.434  1.00  0.00    +0.026 C 
ENDBRANCH  17  19
ENDBRANCH   8  11
ENDBRANCH   1   7
BRANCH   5  29
ATOM     29  C   UNL     1     -36.091 158.295   7.599  1.00  0.00    +0.416 C 
ATOM     30  F   UNL     1     -36.477 159.607   7.617  1.00  0.00    -0.166 F 
ATOM     31  F   UNL     1     -34.770 158.326   7.936  1.00  0.00    -0.166 F 
ATOM     32  F   UNL     1     -36.747 157.717   8.642  1.00  0.00    -0.166 F 
ENDBRANCH   5  29
BRANCH   4  33
ATOM     33  C   UNL     1     -34.926 155.583   6.840  1.00  0.00    +0.120 C 
BRANCH  33  34
ATOM     34  N   UNL     1     -35.014 154.139   6.621  1.00  0.00    -0.297 NA
ATOM     35  C   UNL     1     -35.590 153.446   7.781  1.00  0.00    +0.100 C 
ATOM     36  C   UNL     1     -33.715 153.535   6.255  1.00  0.00    +0.100 C 
ATOM     37  C   UNL     1     -35.811 151.932   7.523  1.00  0.00    +0.099 C 
ATOM     38  C   UNL     1     -33.573 152.031   6.616  1.00  0.00    +0.099 C 
ATOM     39  N   UNL     1     -34.829 151.262   6.642  1.00  0.00    -0.304 NA
ATOM     40  C   UNL     1     -35.369 151.106   5.290  1.00  0.00    +0.105 C 
ENDBRANCH  33  34
ENDBRANCH   4  33
TORSDOF 6
ENDMDL
MODEL 6
REMARK VINA RESULT:   -10.241      4.941      7.355
REMARK INTER + INTRA:         -14.442
REMARK INTER:                 -13.713
REMARK INTRA:                  -0.729
REMARK UNBOUND:                -0.609
REMARK SMILES Cc1ccc(C(=O)Nc2ccc(CN3CCN(C)CC3)c(C(F)(F)F)c2)cc1C#Cc1cnc2cccnn12
REMARK SMILES IDX 9 1 10 2 11 3 12 4 21 5 26 6 8 7 6 8 7 9 5 11 2 12 3 13
REMARK SMILES IDX 28 14 4 15 27 16 29 17 1 18 30 19 31 20 32 21 39 22 33 23
REMARK SMILES IDX 38 24 34 25 37 26 35 27 36 28 22 29 23 30 24 31 25 32 13 33
REMARK SMILES IDX 14 34 15 35 20 36 16 37 19 38 17 39 18 40
REMARK H PARENT 8 10
ROOT
ATOM      1  C   UNL     1     -38.949 151.140   4.064  1.00  0.00    +0.042 A 
ATOM      2  C   UNL     1     -39.300 150.716   2.781  1.00  0.00    +0.026 A 
ATOM      3  C   UNL     1     -39.956 149.500   2.586  1.00  0.00    +0.008 A 
ATOM      4  C   UNL     1     -40.280 148.671   3.674  1.00  0.00    -0.022 A 
ATOM      5  C   UNL     1     -39.922 149.082   4.978  1.00  0.00    +0.062 A 
ATOM      6  C   UNL     1     -39.269 150.324   5.150  1.00  0.00    +0.039 A 
ENDROOT
BRANCH   1   7
ATOM      7  N   UNL     1     -38.299 152.387   4.175  1.00  0.00    -0.322 N 
ATOM      8  C   UNL     1     -37.434 152.799   5.172  1.00  0.00    +0.255 C 
ATOM      9  O   UNL     1     -37.020 152.126   6.109  1.00  0.00    -0.269 OA
ATOM     10  H   UNL     1     -38.437 153.021   3.398  1.00  0.00    +0.170 HD
BRANCH   8  11
ATOM     11  C   UNL     1     -36.939 154.197   5.036  1.00  0.00    +0.041 A 
ATOM     12  C   UNL     1     -35.946 156.824   4.833  1.00  0.00    -0.035 A 
ATOM     13  C   UNL     1     -35.344 155.897   5.698  1.00  0.00    +0.005 A 
ATOM     14  C   UNL     1     -37.066 156.426   4.082  1.00  0.00    +0.029 A 
ATOM     15  C   UNL     1     -35.839 154.595   5.802  1.00  0.00    +0.014 A 
ATOM     16  C   UNL     1     -37.563 155.120   4.188  1.00  0.00    +0.031 A 
ATOM     17  C   UNL     1     -37.734 157.332   3.196  1.00  0.00    -0.060 C 
ATOM     18  C   UNL     1     -35.393 158.220   4.744  1.00  0.00    +0.045 C 
BRANCH  17  19
ATOM     19  C   UNL     1     -38.307 158.078   2.449  1.00  0.00    -0.040 C 
ATOM     20  C   UNL     1     -38.979 158.954   1.556  1.00  0.00    +0.135 A 
ATOM     21  C   UNL     1     -39.869 159.962   1.854  1.00  0.00    +0.151 A 
ATOM     22  N   UNL     1     -38.869 158.959   0.187  1.00  0.00    -0.205 N 
ATOM     23  N   UNL     1     -40.312 160.589   0.714  1.00  0.00    -0.234 NA
ATOM     24  N   UNL     1     -38.086 158.125  -0.570  1.00  0.00    -0.174 NA
ATOM     25  C   UNL     1     -39.703 159.969  -0.274  1.00  0.00    +0.154 A 
ATOM     26  C   UNL     1     -38.189 158.357  -1.840  1.00  0.00    +0.134 C 
ATOM     27  C   UNL     1     -39.767 160.170  -1.671  1.00  0.00    +0.051 C 
ATOM     28  C   UNL     1     -39.036 159.393  -2.480  1.00  0.00    +0.026 C 
ENDBRANCH  17  19
ENDBRANCH   8  11
ENDBRANCH   1   7
BRANCH   5  29
ATOM     29  C   UNL     1     -40.246 148.265   6.215  1.00  0.00    +0.416 C 
ATOM     30  F   UNL     1     -39.869 148.892   7.370  1.00  0.00    -0.166 F 
ATOM     31  F   UNL     1     -39.615 147.057   6.265  1.00  0.00    -0.166 F 
ATOM     32  F   UNL     1     -41.576 148.017   6.362  1.00  0.00    -0.166 F 
ENDBRANCH   5  29
BRANCH   4  33
ATOM     33  C   UNL     1     -41.012 147.369   3.404  1.00  0.00    +0.120 C 
BRANCH  33  34
ATOM     34  N   UNL     1     -40.526 146.695   2.200  1.00  0.00    -0.297 NA
ATOM     35  C   UNL     1     -41.597 145.956   1.519  1.00  0.00    +0.100 C 
ATOM     36  C   UNL     1     -39.377 145.803   2.467  1.00  0.00    +0.100 C 
ATOM     37  C   UNL     1     -41.134 145.339   0.172  1.00  0.00    +0.099 C 
ATOM     38  C   UNL     1     -39.216 144.632   1.461  1.00  0.00    +0.099 C 
ATOM     39  N   UNL     1     -39.728 144.884   0.103  1.00  0.00    -0.304 NA
ATOM     40  C   UNL     1     -38.897 145.872  -0.587  1.00  0.00    +0.105 C 
ENDBRANCH  33  34
ENDBRANCH   4  33
TORSDOF 6
ENDMDL
MODEL 7
REMARK VINA RESULT:   -10.237      4.491      7.217
REMARK INTER + INTRA:         -14.437
REMARK INTER:                 -13.591
REMARK INTRA:                  -0.846
REMARK UNBOUND:                -0.609
REMARK SMILES Cc1ccc(C(=O)Nc2ccc(CN3CCN(C)CC3)c(C(F)(F)F)c2)cc1C#Cc1cnc2cccnn12
REMARK SMILES IDX 9 1 10 2 11 3 12 4 21 5 26 6 8 7 6 8 7 9 5 11 2 12 3 13
REMARK SMILES IDX 28 14 4 15 27 16 29 17 1 18 30 19 31 20 32 21 39 22 33 23
REMARK SMILES IDX 38 24 34 25 37 26 35 27 36 28 22 29 23 30 24 31 25 32 13 33
REMARK SMILES IDX 14 34 15 35 20 36 16 37 19 38 17 39 18 40
REMARK H PARENT 8 10
ROOT
ATOM      1  C   UNL     1     -38.041 151.035   4.893  1.00  0.00    +0.042 A 
ATOM      2  C   UNL     1     -36.986 150.144   5.101  1.00  0.00    +0.026 A 
ATOM      3  C   UNL     1     -37.182 148.767   4.978  1.00  0.00    +0.008 A 
ATOM      4  C   UNL     1     -38.442 148.244   4.643  1.00  0.00    -0.022 A 
ATOM      5  C   UNL     1     -39.521 149.134   4.440  1.00  0.00    +0.062 A 
ATOM      6  C   UNL     1     -39.295 150.523   4.559  1.00  0.00    +0.039 A 
ENDROOT
BRANCH   1   7
ATOM      7  N   UNL     1     -37.756 152.410   5.025  1.00  0.00    -0.322 N 
ATOM      8  C   UNL     1     -37.180 153.050   6.108  1.00  0.00    +0.255 C 
ATOM      9  O   UNL     1     -36.749 152.524   7.127  1.00  0.00    -0.269 OA
ATOM     10  H   UNL     1     -37.936 152.975   4.204  1.00  0.00    +0.170 HD
BRANCH   8  11
ATOM     11  C   UNL     1     -37.046 154.527   5.967  1.00  0.00    +0.041 A 
ATOM     12  C   UNL     1     -36.755 157.320   5.772  1.00  0.00    -0.035 A 
ATOM     13  C   UNL     1     -36.283 156.629   6.898  1.00  0.00    +0.005 A 
ATOM     14  C   UNL     1     -37.393 156.598   4.748  1.00  0.00    +0.029 A 
ATOM     15  C   UNL     1     -36.431 155.244   6.997  1.00  0.00    +0.014 A 
ATOM     16  C   UNL     1     -37.542 155.208   4.849  1.00  0.00    +0.031 A 
ATOM     17  C   UNL     1     -37.912 157.249   3.582  1.00  0.00    -0.060 C 
ATOM     18  C   UNL     1     -36.585 158.813   5.694  1.00  0.00    +0.045 C 
BRANCH  17  19
ATOM     19  C   UNL     1     -38.353 157.778   2.599  1.00  0.00    -0.040 C 
ATOM     20  C   UNL     1     -38.884 158.408   1.443  1.00  0.00    +0.135 A 
ATOM     21  C   UNL     1     -38.287 158.588   0.214  1.00  0.00    +0.151 A 
ATOM     22  N   UNL     1     -40.129 158.977   1.328  1.00  0.00    -0.205 N 
ATOM     23  N   UNL     1     -39.121 159.248  -0.654  1.00  0.00    -0.234 NA
ATOM     24  N   UNL     1     -41.091 159.037   2.305  1.00  0.00    -0.174 NA
ATOM     25  C   UNL     1     -40.220 159.476   0.035  1.00  0.00    +0.154 A 
ATOM     26  C   UNL     1     -42.167 159.641   1.912  1.00  0.00    +0.134 C 
ATOM     27  C   UNL     1     -41.423 160.122  -0.329  1.00  0.00    +0.051 C 
ATOM     28  C   UNL     1     -42.408 160.226   0.571  1.00  0.00    +0.026 C 
ENDBRANCH  17  19
ENDBRANCH   8  11
ENDBRANCH   1   7
BRANCH   5  29
ATOM     29  C   UNL     1     -40.913 148.664   4.057  1.00  0.00    +0.416 C 
ATOM     30  F   UNL     1     -41.550 148.026   5.085  1.00  0.00    -0.166 F 
ATOM     31  F   UNL     1     -40.935 147.763   3.034  1.00  0.00    -0.166 F 
ATOM     32  F   UNL     1     -41.744 149.681   3.700  1.00  0.00    -0.166 F 
ENDBRANCH   5  29
BRANCH   4  33
ATOM     33  C   UNL     1     -38.591 146.740   4.503  1.00  0.00    +0.120 C 
BRANCH  33  34
ATOM     34  N   UNL     1     -39.070 146.110   5.734  1.00  0.00    -0.297 NA
ATOM     35  C   UNL     1     -37.967 145.535   6.516  1.00  0.00    +0.100 C 
ATOM     36  C   UNL     1     -40.111 145.089   5.488  1.00  0.00    +0.100 C 
ATOM     37  C   UNL     1     -38.435 144.974   7.886  1.00  0.00    +0.099 C 
ATOM     38  C   UNL     1     -40.207 143.984   6.575  1.00  0.00    +0.099 C 
ATOM     39  N   UNL     1     -39.792 144.386   7.930  1.00  0.00    -0.304 NA
ATOM     40  C   UNL     1     -40.749 145.333   8.505  1.00  0.00    +0.105 C 
ENDBRANCH  33  34
ENDBRANCH   4  33
TORSDOF 6
ENDMDL
MODEL 8
REMARK VINA RESULT:   -10.216      4.738     13.506
REMARK INTER + INTRA:         -14.408
REMARK INTER:                 -15.150
REMARK INTRA:                   0.742
REMARK UNBOUND:                -0.609
REMARK SMILES Cc1ccc(C(=O)Nc2ccc(CN3CCN(C)CC3)c(C(F)(F)F)c2)cc1C#Cc1cnc2cccnn12
REMARK SMILES IDX 9 1 10 2 11 3 12 4 21 5 26 6 8 7 6 8 7 9 5 11 2 12 3 13
REMARK SMILES IDX 28 14 4 15 27 16 29 17 1 18 30 19 31 20 32 21 39 22 33 23
REMARK SMILES IDX 38 24 34 25 37 26 35 27 36 28 22 29 23 30 24 31 25 32 13 33
REMARK SMILES IDX 14 34 15 35 20 36 16 37 19 38 17 39 18 40
REMARK H PARENT 8 10
ROOT
ATOM      1  C   UNL     1     -38.637 162.215  -4.435  1.00  0.00    +0.042 A 
ATOM      2  C   UNL     1     -39.019 163.523  -4.735  1.00  0.00    +0.026 A 
ATOM      3  C   UNL     1     -38.578 164.143  -5.907  1.00  0.00    +0.008 A 
ATOM      4  C   UNL     1     -37.742 163.468  -6.811  1.00  0.00    -0.022 A 
ATOM      5  C   UNL     1     -37.339 162.146  -6.515  1.00  0.00    +0.062 A 
ATOM      6  C   UNL     1     -37.808 161.536  -5.329  1.00  0.00    +0.039 A 
ENDROOT
BRANCH   1   7
ATOM      7  N   UNL     1     -39.135 161.658  -3.238  1.00  0.00    -0.322 N 
ATOM      8  C   UNL     1     -38.615 160.592  -2.526  1.00  0.00    +0.255 C 
ATOM      9  O   UNL     1     -37.584 159.979  -2.772  1.00  0.00    -0.269 OA
ATOM     10  H   UNL     1     -39.924 162.142  -2.827  1.00  0.00    +0.170 HD
BRANCH   8  11
ATOM     11  C   UNL     1     -39.394 160.206  -1.316  1.00  0.00    +0.041 A 
ATOM     12  C   UNL     1     -40.930 159.518   0.940  1.00  0.00    -0.035 A 
ATOM     13  C   UNL     1     -41.482 160.295  -0.090  1.00  0.00    +0.005 A 
ATOM     14  C   UNL     1     -39.591 159.103   0.837  1.00  0.00    +0.029 A 
ATOM     15  C   UNL     1     -40.718 160.640  -1.207  1.00  0.00    +0.014 A 
ATOM     16  C   UNL     1     -38.825 159.451  -0.284  1.00  0.00    +0.031 A 
ATOM     17  C   UNL     1     -38.966 158.324   1.865  1.00  0.00    -0.060 C 
ATOM     18  C   UNL     1     -41.775 159.164   2.134  1.00  0.00    +0.045 C 
BRANCH  17  19
ATOM     19  C   UNL     1     -38.427 157.671   2.716  1.00  0.00    -0.040 C 
ATOM     20  C   UNL     1     -37.788 156.908   3.729  1.00  0.00    +0.135 A 
ATOM     21  C   UNL     1     -37.608 155.544   3.790  1.00  0.00    +0.151 A 
ATOM     22  N   UNL     1     -37.215 157.402   4.876  1.00  0.00    -0.205 N 
ATOM     23  N   UNL     1     -36.944 155.179   4.936  1.00  0.00    -0.234 NA
ATOM     24  N   UNL     1     -37.148 158.720   5.252  1.00  0.00    -0.174 NA
ATOM     25  C   UNL     1     -36.721 156.307   5.575  1.00  0.00    +0.154 A 
ATOM     26  C   UNL     1     -36.554 158.887   6.391  1.00  0.00    +0.134 C 
ATOM     27  C   UNL     1     -36.082 156.561   6.810  1.00  0.00    +0.051 C 
ATOM     28  C   UNL     1     -35.981 157.822   7.249  1.00  0.00    +0.026 C 
ENDBRANCH  17  19
ENDBRANCH   8  11
ENDBRANCH   1   7
BRANCH   5  29
ATOM     29  C   UNL     1     -36.453 161.330  -7.439  1.00  0.00    +0.416 C 
ATOM     30  F   UNL     1     -35.620 160.488  -6.756  1.00  0.00    -0.166 F 
ATOM     31  F   UNL     1     -35.618 162.079  -8.213  1.00  0.00    -0.166 F 
ATOM     32  F   UNL     1     -37.155 160.527  -8.284  1.00  0.00    -0.166 F 
ENDBRANCH   5  29
BRANCH   4  33
ATOM     33  C   UNL     1     -37.312 164.184  -8.078  1.00  0.00    +0.120 C 
BRANCH  33  34
ATOM     34  N   UNL     1     -37.464 163.350  -9.270  1.00  0.00    -0.297 NA
ATOM     35  C   UNL     1     -36.727 163.898 -10.416  1.00  0.00    +0.100 C 
ATOM     36  C   UNL     1     -38.879 163.121  -9.632  1.00  0.00    +0.100 C 
ATOM     37  C   UNL     1     -36.770 162.964 -11.656  1.00  0.00    +0.099 C 
ATOM     38  C   UNL     1     -39.125 162.822 -11.135  1.00  0.00    +0.099 C 
ATOM     39  N   UNL     1     -38.008 162.178 -11.848  1.00  0.00    -0.304 NA
ATOM     40  C   UNL     1     -37.825 160.801 -11.385  1.00  0.00    +0.105 C 
ENDBRANCH  33  34
ENDBRANCH   4  33
TORSDOF 6
ENDMDL
MODEL 9
REMARK VINA RESULT:    -9.993      4.309      7.361
REMARK INTER + INTRA:         -14.107
REMARK INTER:                 -13.067
REMARK INTRA:                  -1.040
REMARK UNBOUND:                -0.609
REMARK SMILES Cc1ccc(C(=O)Nc2ccc(CN3CCN(C)CC3)c(C(F)(F)F)c2)cc1C#Cc1cnc2cccnn12
REMARK SMILES IDX 9 1 10 2 11 3 12 4 21 5 26 6 8 7 6 8 7 9 5 11 2 12 3 13
REMARK SMILES IDX 28 14 4 15 27 16 29 17 1 18 30 19 31 20 32 21 39 22 33 23
REMARK SMILES IDX 38 24 34 25 37 26 35 27 36 28 22 29 23 30 24 31 25 32 13 33
REMARK SMILES IDX 14 34 15 35 20 36 16 37 19 38 17 39 18 40
REMARK H PARENT 8 10
ROOT
ATOM      1  C   UNL     1     -38.668 150.753   4.185  1.00  0.00    +0.042 A 
ATOM      2  C   UNL     1     -40.004 150.446   4.449  1.00  0.00    +0.026 A 
ATOM      3  C   UNL     1     -40.497 149.159   4.225  1.00  0.00    +0.008 A 
ATOM      4  C   UNL     1     -39.664 148.142   3.730  1.00  0.00    -0.022 A 
ATOM      5  C   UNL     1     -38.311 148.442   3.449  1.00  0.00    +0.062 A 
ATOM      6  C   UNL     1     -37.833 149.748   3.695  1.00  0.00    +0.039 A 
ENDROOT
BRANCH   1   7
ATOM      7  N   UNL     1     -38.247 152.073   4.450  1.00  0.00    -0.322 N 
ATOM      8  C   UNL     1     -37.498 152.518   5.525  1.00  0.00    +0.255 C 
ATOM      9  O   UNL     1     -37.005 151.830   6.411  1.00  0.00    -0.269 OA
ATOM     10  H   UNL     1     -38.467 152.754   3.734  1.00  0.00    +0.170 HD
BRANCH   8  11
ATOM     11  C   UNL     1     -37.249 153.986   5.552  1.00  0.00    +0.041 A 
ATOM     12  C   UNL     1     -36.739 156.752   5.674  1.00  0.00    -0.035 A 
ATOM     13  C   UNL     1     -36.310 155.900   6.704  1.00  0.00    +0.005 A 
ATOM     14  C   UNL     1     -37.444 156.205   4.588  1.00  0.00    +0.029 A 
ATOM     15  C   UNL     1     -36.567 154.528   6.645  1.00  0.00    +0.014 A 
ATOM     16  C   UNL     1     -37.703 154.829   4.531  1.00  0.00    +0.031 A 
ATOM     17  C   UNL     1     -37.923 157.027   3.516  1.00  0.00    -0.060 C 
ATOM     18  C   UNL     1     -36.451 158.226   5.766  1.00  0.00    +0.045 C 
BRANCH  17  19
ATOM     19  C   UNL     1     -38.332 157.700   2.610  1.00  0.00    -0.040 C 
ATOM     20  C   UNL     1     -38.825 158.498   1.544  1.00  0.00    +0.135 A 
ATOM     21  C   UNL     1     -38.161 158.928   0.417  1.00  0.00    +0.151 A 
ATOM     22  N   UNL     1     -40.096 159.009   1.434  1.00  0.00    -0.205 N 
ATOM     23  N   UNL     1     -38.977 159.688  -0.385  1.00  0.00    -0.234 NA
ATOM     24  N   UNL     1     -41.123 158.839   2.328  1.00  0.00    -0.174 NA
ATOM     25  C   UNL     1     -40.132 159.727   0.245  1.00  0.00    +0.154 A 
ATOM     26  C   UNL     1     -42.209 159.444   1.964  1.00  0.00    +0.134 C 
ATOM     27  C   UNL     1     -41.349 160.361  -0.092  1.00  0.00    +0.051 C 
ATOM     28  C   UNL     1     -42.398 160.247   0.732  1.00  0.00    +0.026 C 
ENDBRANCH  17  19
ENDBRANCH   8  11
ENDBRANCH   1   7
BRANCH   5  29
ATOM     29  C   UNL     1     -37.331 147.405   2.930  1.00  0.00    +0.416 C 
ATOM     30  F   UNL     1     -37.765 146.804   1.781  1.00  0.00    -0.166 F 
ATOM     31  F   UNL     1     -37.108 146.371   3.790  1.00  0.00    -0.166 F 
ATOM     32  F   UNL     1     -36.113 147.926   2.620  1.00  0.00    -0.166 F 
ENDBRANCH   5  29
BRANCH   4  33
ATOM     33  C   UNL     1     -40.250 146.757   3.525  1.00  0.00    +0.120 C 
BRANCH  33  34
ATOM     34  N   UNL     1     -40.823 146.207   4.754  1.00  0.00    -0.297 NA
ATOM     35  C   UNL     1     -39.797 145.986   5.782  1.00  0.00    +0.100 C 
ATOM     36  C   UNL     1     -41.592 144.966   4.521  1.00  0.00    +0.100 C 
ATOM     37  C   UNL     1     -40.399 145.523   7.136  1.00  0.00    +0.099 C 
ATOM     38  C   UNL     1     -41.681 144.017   5.747  1.00  0.00    +0.099 C 
ATOM     39  N   UNL     1     -41.606 144.671   7.065  1.00  0.00    -0.304 NA
ATOM     40  C   UNL     1     -42.813 145.461   7.319  1.00  0.00    +0.105 C 
ENDBRANCH  33  34
ENDBRANCH   4  33
TORSDOF 6
ENDMDL
