MODEL 1
REMARK VINA RESULT:    -8.731      0.000      0.000
REMARK INTER + INTRA:         -12.304
REMARK INTER:                 -11.284
REMARK INTRA:                  -1.020
REMARK UNBOUND:                -1.020
REMARK SMILES CCn1c(=O)c(-c2cc(NC(=O)Nc3ccccc3)c(F)cc2Br)cc2cnc(NC)cc21
REMARK SMILES IDX 3 1 4 2 5 3 6 4 25 5 26 6 27 7 28 8 29 9 32 10 33 11 2 12
REMARK SMILES IDX 1 13 7 14 8 15 23 16 9 17 22 18 20 19 24 20 21 21 10 22
REMARK SMILES IDX 11 23 12 24 13 25 14 28 15 29 19 30 16 31 18 32 17 33 30 34
REMARK SMILES IDX 31 35
REMARK H PARENT 10 26 13 27 30 36
ROOT
ATOM      1  N   UNL     1     -12.842  -2.861 -10.685  1.00  0.00    -0.308 N 
ATOM      2  C   UNL     1     -11.648  -2.604 -11.364  1.00  0.00    +0.258 C 
ATOM      3  O   UNL     1     -11.046  -3.458 -12.017  1.00  0.00    -0.269 OA
ATOM      4  C   UNL     1     -11.083  -1.219 -11.270  1.00  0.00    +0.049 C 
ATOM      5  C   UNL     1     -11.668  -0.291 -10.498  1.00  0.00    +0.026 C 
ATOM      6  C   UNL     1     -12.879  -0.611  -9.756  1.00  0.00    +0.018 A 
ATOM      7  C   UNL     1     -13.496   0.331  -8.945  1.00  0.00    +0.123 A 
ATOM      8  N   UNL     1     -14.616   0.099  -8.227  1.00  0.00    -0.239 NA
ATOM      9  C   UNL     1     -15.167  -1.125  -8.300  1.00  0.00    +0.127 A 
ATOM     10  C   UNL     1     -14.618  -2.125  -9.105  1.00  0.00    +0.073 A 
ATOM     11  C   UNL     1     -13.458  -1.877  -9.846  1.00  0.00    +0.056 A 
ENDROOT
BRANCH   1  12
ATOM     12  C   UNL     1     -13.406  -4.204 -10.809  1.00  0.00    +0.122 C 
ATOM     13  C   UNL     1     -12.861  -5.156  -9.755  1.00  0.00    +0.028 C 
ENDBRANCH   1  12
BRANCH   4  14
ATOM     14  C   UNL     1      -9.860  -0.867 -12.017  1.00  0.00    +0.004 A 
ATOM     15  C   UNL     1      -9.996  -0.083 -13.179  1.00  0.00    +0.039 A 
ATOM     16  C   UNL     1      -8.576  -1.277 -11.619  1.00  0.00    +0.029 A 
ATOM     17  C   UNL     1      -8.881   0.263 -13.950  1.00  0.00    +0.079 A 
ATOM     18  C   UNL     1      -7.457  -0.911 -12.367  1.00  0.00    +0.057 A 
ATOM     19  C   UNL     1      -7.613  -0.143 -13.518  1.00  0.00    +0.147 A 
ATOM     20 Br   UNL     1      -8.282  -2.308 -10.050  1.00  0.00    -0.050 Br
ATOM     21  F   UNL     1      -6.501   0.267 -14.144  1.00  0.00    -0.205 F 
BRANCH  17  22
ATOM     22  N   UNL     1      -9.098   1.058 -15.098  1.00  0.00    -0.305 N 
ATOM     23  C   UNL     1      -8.988   2.442 -15.127  1.00  0.00    +0.323 C 
ATOM     24  O   UNL     1      -8.471   3.111 -14.242  1.00  0.00    -0.248 OA
ATOM     25  N   UNL     1      -9.500   2.924 -16.321  1.00  0.00    -0.308 N 
ATOM     26  H   UNL     1      -8.942   0.617 -15.993  1.00  0.00    +0.171 HD
ATOM     27  H   UNL     1     -10.121   2.293 -16.804  1.00  0.00    +0.171 HD
BRANCH  25  28
ATOM     28  C   UNL     1      -9.461   4.249 -16.800  1.00  0.00    +0.042 A 
ATOM     29  C   UNL     1     -10.358   5.244 -16.408  1.00  0.00    +0.026 A 
ATOM     30  C   UNL     1      -8.441   4.575 -17.704  1.00  0.00    +0.026 A 
ATOM     31  C   UNL     1     -10.245   6.541 -16.919  1.00  0.00    +0.002 A 
ATOM     32  C   UNL     1      -8.329   5.871 -18.216  1.00  0.00    +0.002 A 
ATOM     33  C   UNL     1      -9.232   6.854 -17.823  1.00  0.00    +0.000 A 
ENDBRANCH  25  28
ENDBRANCH  17  22
ENDBRANCH   4  14
BRANCH   9  34
ATOM     34  N   UNL     1     -16.349  -1.419  -7.597  1.00  0.00    -0.373 N 
ATOM     35  C   UNL     1     -16.738  -0.407  -6.628  1.00  0.00    +0.141 C 
ATOM     36  H   UNL     1     -16.265  -2.337  -7.169  1.00  0.00    +0.161 HD
ENDBRANCH   9  34
TORSDOF 5
ENDMDL
MODEL 2
REMARK VINA RESULT:    -8.471      5.305      7.837
REMARK INTER + INTRA:         -11.968
REMARK INTER:                 -12.105
REMARK INTRA:                   0.137
REMARK UNBOUND:                -1.020
REMARK SMILES CCn1c(=O)c(-c2cc(NC(=O)Nc3ccccc3)c(F)cc2Br)cc2cnc(NC)cc21
REMARK SMILES IDX 3 1 4 2 5 3 6 4 25 5 26 6 27 7 28 8 29 9 32 10 33 11 2 12
REMARK SMILES IDX 1 13 7 14 8 15 23 16 9 17 22 18 20 19 24 20 21 21 10 22
REMARK SMILES IDX 11 23 12 24 13 25 14 28 15 29 19 30 16 31 18 32 17 33 30 34
REMARK SMILES IDX 31 35
REMARK H PARENT 10 26 13 27 30 36
ROOT
ATOM      1  N   UNL     1      -6.369   0.034 -15.989  1.00  0.00    -0.308 N 
ATOM      2  C   UNL     1      -7.555   0.771 -15.926  1.00  0.00    +0.258 C 
ATOM      3  O   UNL     1      -8.169   1.147 -16.925  1.00  0.00    -0.269 OA
ATOM      4  C   UNL     1      -8.082   1.119 -14.567  1.00  0.00    +0.049 C 
ATOM      5  C   UNL     1      -7.392   0.799 -13.462  1.00  0.00    +0.026 C 
ATOM      6  C   UNL     1      -6.129   0.083 -13.567  1.00  0.00    +0.018 A 
ATOM      7  C   UNL     1      -5.395  -0.251 -12.437  1.00  0.00    +0.123 A 
ATOM      8  N   UNL     1      -4.216  -0.908 -12.463  1.00  0.00    -0.239 NA
ATOM      9  C   UNL     1      -3.719  -1.259 -13.662  1.00  0.00    +0.127 A 
ATOM     10  C   UNL     1      -4.401  -0.975 -14.847  1.00  0.00    +0.073 A 
ATOM     11  C   UNL     1      -5.623  -0.294 -14.811  1.00  0.00    +0.056 A 
ENDROOT
BRANCH   1  12
ATOM     12  C   UNL     1      -5.879  -0.333 -17.316  1.00  0.00    +0.122 C 
ATOM     13  C   UNL     1      -4.939   0.715 -17.893  1.00  0.00    +0.028 C 
ENDBRANCH   1  12
BRANCH   4  14
ATOM     14  C   UNL     1      -9.363   1.839 -14.432  1.00  0.00    +0.004 A 
ATOM     15  C   UNL     1      -9.494   3.082 -15.081  1.00  0.00    +0.039 A 
ATOM     16  C   UNL     1     -10.447   1.340 -13.691  1.00  0.00    +0.029 A 
ATOM     17  C   UNL     1     -10.672   3.831 -14.972  1.00  0.00    +0.079 A 
ATOM     18  C   UNL     1     -11.634   2.067 -13.603  1.00  0.00    +0.057 A 
ATOM     19  C   UNL     1     -11.742   3.299 -14.244  1.00  0.00    +0.147 A 
ATOM     20 Br   UNL     1     -10.382  -0.341 -12.807  1.00  0.00    -0.050 Br
ATOM     21  F   UNL     1     -12.934   3.910 -14.213  1.00  0.00    -0.205 F 
BRANCH  17  22
ATOM     22  N   UNL     1     -10.730   5.065 -15.658  1.00  0.00    -0.305 N 
ATOM     23  C   UNL     1     -10.345   5.248 -16.980  1.00  0.00    +0.323 C 
ATOM     24  O   UNL     1     -10.135   4.337 -17.769  1.00  0.00    -0.248 OA
ATOM     25  N   UNL     1     -10.292   6.603 -17.266  1.00  0.00    -0.308 N 
ATOM     26  H   UNL     1     -11.416   5.732 -15.336  1.00  0.00    +0.171 HD
ATOM     27  H   UNL     1     -10.223   7.206 -16.460  1.00  0.00    +0.171 HD
BRANCH  25  28
ATOM     28  C   UNL     1     -10.072   7.209 -18.519  1.00  0.00    +0.042 A 
ATOM     29  C   UNL     1     -10.431   6.630 -19.737  1.00  0.00    +0.026 A 
ATOM     30  C   UNL     1      -9.479   8.479 -18.522  1.00  0.00    +0.026 A 
ATOM     31  C   UNL     1     -10.191   7.303 -20.939  1.00  0.00    +0.002 A 
ATOM     32  C   UNL     1      -9.239   9.151 -19.724  1.00  0.00    +0.002 A 
ATOM     33  C   UNL     1      -9.595   8.561 -20.933  1.00  0.00    +0.000 A 
ENDBRANCH  25  28
ENDBRANCH  17  22
ENDBRANCH   4  14
BRANCH   9  34
ATOM     34  N   UNL     1      -2.509  -1.969 -13.754  1.00  0.00    -0.373 N 
ATOM     35  C   UNL     1      -1.740  -1.693 -14.957  1.00  0.00    +0.141 C 
ATOM     36  H   UNL     1      -2.694  -2.963 -13.646  1.00  0.00    +0.161 HD
ENDBRANCH   9  34
TORSDOF 5
ENDMDL
MODEL 3
REMARK VINA RESULT:    -8.330      3.170      9.931
REMARK INTER + INTRA:         -11.786
REMARK INTER:                 -12.249
REMARK INTRA:                   0.464
REMARK UNBOUND:                -1.020
REMARK SMILES CCn1c(=O)c(-c2cc(NC(=O)Nc3ccccc3)c(F)cc2Br)cc2cnc(NC)cc21
REMARK SMILES IDX 3 1 4 2 5 3 6 4 25 5 26 6 27 7 28 8 29 9 32 10 33 11 2 12
REMARK SMILES IDX 1 13 7 14 8 15 23 16 9 17 22 18 20 19 24 20 21 21 10 22
REMARK SMILES IDX 11 23 12 24 13 25 14 28 15 29 19 30 16 31 18 32 17 33 30 34
REMARK SMILES IDX 31 35
REMARK H PARENT 10 26 13 27 30 36
ROOT
ATOM      1  N   UNL     1      -9.340   1.195 -15.364  1.00  0.00    -0.308 N 
ATOM      2  C   UNL     1     -10.198   0.797 -14.336  1.00  0.00    +0.258 C 
ATOM      3  O   UNL     1     -10.300  -0.370 -13.955  1.00  0.00    -0.269 OA
ATOM      4  C   UNL     1     -11.036   1.857 -13.686  1.00  0.00    +0.049 C 
ATOM      5  C   UNL     1     -11.013   3.120 -14.135  1.00  0.00    +0.026 C 
ATOM      6  C   UNL     1     -10.150   3.487 -15.248  1.00  0.00    +0.018 A 
ATOM      7  C   UNL     1     -10.115   4.787 -15.733  1.00  0.00    +0.123 A 
ATOM      8  N   UNL     1      -9.343   5.193 -16.765  1.00  0.00    -0.239 NA
ATOM      9  C   UNL     1      -8.560   4.278 -17.362  1.00  0.00    +0.127 A 
ATOM     10  C   UNL     1      -8.523   2.952 -16.925  1.00  0.00    +0.073 A 
ATOM     11  C   UNL     1      -9.325   2.540 -15.856  1.00  0.00    +0.056 A 
ENDROOT
BRANCH   1  12
ATOM     12  C   UNL     1      -8.499   0.163 -15.970  1.00  0.00    +0.122 C 
ATOM     13  C   UNL     1      -7.171   0.003 -15.244  1.00  0.00    +0.028 C 
ENDBRANCH   1  12
BRANCH   4  14
ATOM     14  C   UNL     1     -11.915   1.512 -12.551  1.00  0.00    +0.004 A 
ATOM     15  C   UNL     1     -11.499   0.487 -11.680  1.00  0.00    +0.039 A 
ATOM     16  C   UNL     1     -13.138   2.160 -12.307  1.00  0.00    +0.029 A 
ATOM     17  C   UNL     1     -12.298   0.090 -10.601  1.00  0.00    +0.079 A 
ATOM     18  C   UNL     1     -13.924   1.790 -11.216  1.00  0.00    +0.057 A 
ATOM     19  C   UNL     1     -13.501   0.767 -10.370  1.00  0.00    +0.147 A 
ATOM     20 Br   UNL     1     -13.771   3.577 -13.403  1.00  0.00    -0.050 Br
ATOM     21  F   UNL     1     -14.241   0.518  -9.281  1.00  0.00    -0.205 F 
BRANCH  17  22
ATOM     22  N   UNL     1     -11.809  -0.941  -9.768  1.00  0.00    -0.305 N 
ATOM     23  C   UNL     1     -11.902  -2.297 -10.059  1.00  0.00    +0.323 C 
ATOM     24  O   UNL     1     -12.198  -2.746 -11.158  1.00  0.00    -0.248 OA
ATOM     25  N   UNL     1     -11.558  -3.037  -8.940  1.00  0.00    -0.308 N 
ATOM     26  H   UNL     1     -11.042  -0.707  -9.155  1.00  0.00    +0.171 HD
ATOM     27  H   UNL     1     -11.609  -2.536  -8.065  1.00  0.00    +0.171 HD
BRANCH  25  28
ATOM     28  C   UNL     1     -11.397  -4.434  -8.849  1.00  0.00    +0.042 A 
ATOM     29  C   UNL     1     -10.166  -5.065  -8.664  1.00  0.00    +0.026 A 
ATOM     30  C   UNL     1     -12.555  -5.220  -8.929  1.00  0.00    +0.026 A 
ATOM     31  C   UNL     1     -10.091  -6.459  -8.570  1.00  0.00    +0.002 A 
ATOM     32  C   UNL     1     -12.480  -6.612  -8.836  1.00  0.00    +0.002 A 
ATOM     33  C   UNL     1     -11.246  -7.231  -8.657  1.00  0.00    +0.000 A 
ENDBRANCH  25  28
ENDBRANCH  17  22
ENDBRANCH   4  14
BRANCH   9  34
ATOM     34  N   UNL     1      -7.713   4.646 -18.422  1.00  0.00    -0.373 N 
ATOM     35  C   UNL     1      -8.142   5.830 -19.149  1.00  0.00    +0.141 C 
ATOM     36  H   UNL     1      -7.586   3.850 -19.042  1.00  0.00    +0.161 HD
ENDBRANCH   9  34
TORSDOF 5
ENDMDL
MODEL 4
REMARK VINA RESULT:    -7.918      2.701     10.051
REMARK INTER + INTRA:         -11.253
REMARK INTER:                 -12.164
REMARK INTRA:                   0.911
REMARK UNBOUND:                -1.020
REMARK SMILES CCn1c(=O)c(-c2cc(NC(=O)Nc3ccccc3)c(F)cc2Br)cc2cnc(NC)cc21
REMARK SMILES IDX 3 1 4 2 5 3 6 4 25 5 26 6 27 7 28 8 29 9 32 10 33 11 2 12
REMARK SMILES IDX 1 13 7 14 8 15 23 16 9 17 22 18 20 19 24 20 21 21 10 22
REMARK SMILES IDX 11 23 12 24 13 25 14 28 15 29 19 30 16 31 18 32 17 33 30 34
REMARK SMILES IDX 31 35
REMARK H PARENT 10 26 13 27 30 36
ROOT
ATOM      1  N   UNL     1     -10.383   5.256 -16.390  1.00  0.00    -0.308 N 
ATOM      2  C   UNL     1      -9.965   4.109 -15.710  1.00  0.00    +0.258 C 
ATOM      3  O   UNL     1     -10.496   3.709 -14.672  1.00  0.00    -0.269 OA
ATOM      4  C   UNL     1      -8.806   3.349 -16.281  1.00  0.00    +0.049 C 
ATOM      5  C   UNL     1      -8.153   3.806 -17.360  1.00  0.00    +0.026 C 
ATOM      6  C   UNL     1      -8.578   5.037 -18.009  1.00  0.00    +0.018 A 
ATOM      7  C   UNL     1      -7.912   5.531 -19.122  1.00  0.00    +0.123 A 
ATOM      8  N   UNL     1      -8.250   6.669 -19.767  1.00  0.00    -0.239 NA
ATOM      9  C   UNL     1      -9.298   7.369 -19.300  1.00  0.00    +0.127 A 
ATOM     10  C   UNL     1     -10.033   6.933 -18.195  1.00  0.00    +0.073 A 
ATOM     11  C   UNL     1      -9.676   5.754 -17.532  1.00  0.00    +0.056 A 
ENDROOT
BRANCH   1  12
ATOM     12  C   UNL     1     -11.536   5.973 -15.847  1.00  0.00    +0.122 C 
ATOM     13  C   UNL     1     -12.830   5.602 -16.558  1.00  0.00    +0.028 C 
ENDBRANCH   1  12
BRANCH   4  14
ATOM     14  C   UNL     1      -8.359   2.095 -15.646  1.00  0.00    +0.004 A 
ATOM     15  C   UNL     1      -8.910   1.753 -14.397  1.00  0.00    +0.039 A 
ATOM     16  C   UNL     1      -7.415   1.235 -16.233  1.00  0.00    +0.029 A 
ATOM     17  C   UNL     1      -8.510   0.592 -13.725  1.00  0.00    +0.079 A 
ATOM     18  C   UNL     1      -7.033   0.061 -15.583  1.00  0.00    +0.057 A 
ATOM     19  C   UNL     1      -7.583  -0.256 -14.343  1.00  0.00    +0.147 A 
ATOM     20 Br   UNL     1      -6.638   1.589 -17.930  1.00  0.00    -0.050 Br
ATOM     21  F   UNL     1      -7.260  -1.442 -13.808  1.00  0.00    -0.205 F 
BRANCH  17  22
ATOM     22  N   UNL     1      -9.113   0.313 -12.479  1.00  0.00    -0.305 N 
ATOM     23  C   UNL     1     -10.263  -0.451 -12.316  1.00  0.00    +0.323 C 
ATOM     24  O   UNL     1     -10.750  -1.157 -13.188  1.00  0.00    -0.248 OA
ATOM     25  N   UNL     1     -10.724  -0.325 -11.015  1.00  0.00    -0.308 N 
ATOM     26  H   UNL     1      -8.511   0.321 -11.669  1.00  0.00    +0.171 HD
ATOM     27  H   UNL     1     -10.384   0.485 -10.519  1.00  0.00    +0.171 HD
BRANCH  25  28
ATOM     28  C   UNL     1     -11.781  -1.031 -10.406  1.00  0.00    +0.042 A 
ATOM     29  C   UNL     1     -11.745  -2.399 -10.132  1.00  0.00    +0.026 A 
ATOM     30  C   UNL     1     -12.916  -0.297 -10.039  1.00  0.00    +0.026 A 
ATOM     31  C   UNL     1     -12.831  -3.026  -9.511  1.00  0.00    +0.002 A 
ATOM     32  C   UNL     1     -14.001  -0.922  -9.420  1.00  0.00    +0.002 A 
ATOM     33  C   UNL     1     -13.958  -2.288  -9.156  1.00  0.00    +0.000 A 
ENDBRANCH  25  28
ENDBRANCH  17  22
ENDBRANCH   4  14
BRANCH   9  34
ATOM     34  N   UNL     1      -9.716   8.546 -19.945  1.00  0.00    -0.373 N 
ATOM     35  C   UNL     1      -8.920   9.720 -19.626  1.00  0.00    +0.141 C 
ATOM     36  H   UNL     1     -10.703   8.700 -19.758  1.00  0.00    +0.161 HD
ENDBRANCH   9  34
TORSDOF 5
ENDMDL
MODEL 5
REMARK VINA RESULT:    -7.912      3.961      9.842
REMARK INTER + INTRA:         -11.245
REMARK INTER:                 -11.435
REMARK INTRA:                   0.190
REMARK UNBOUND:                -1.020
REMARK SMILES CCn1c(=O)c(-c2cc(NC(=O)Nc3ccccc3)c(F)cc2Br)cc2cnc(NC)cc21
REMARK SMILES IDX 3 1 4 2 5 3 6 4 25 5 26 6 27 7 28 8 29 9 32 10 33 11 2 12
REMARK SMILES IDX 1 13 7 14 8 15 23 16 9 17 22 18 20 19 24 20 21 21 10 22
REMARK SMILES IDX 11 23 12 24 13 25 14 28 15 29 19 30 16 31 18 32 17 33 30 34
REMARK SMILES IDX 31 35
REMARK H PARENT 10 26 13 27 30 36
ROOT
ATOM      1  N   UNL     1      -9.314   1.291 -15.359  1.00  0.00    -0.308 N 
ATOM      2  C   UNL     1     -10.168   0.897 -14.325  1.00  0.00    +0.258 C 
ATOM      3  O   UNL     1     -10.266  -0.268 -13.937  1.00  0.00    -0.269 OA
ATOM      4  C   UNL     1     -11.006   1.959 -13.678  1.00  0.00    +0.049 C 
ATOM      5  C   UNL     1     -10.986   3.220 -14.133  1.00  0.00    +0.026 C 
ATOM      6  C   UNL     1     -10.128   3.582 -15.252  1.00  0.00    +0.018 A 
ATOM      7  C   UNL     1     -10.097   4.880 -15.744  1.00  0.00    +0.123 A 
ATOM      8  N   UNL     1      -9.330   5.282 -16.781  1.00  0.00    -0.239 NA
ATOM      9  C   UNL     1      -8.547   4.365 -17.376  1.00  0.00    +0.127 A 
ATOM     10  C   UNL     1      -8.506   3.041 -16.932  1.00  0.00    +0.073 A 
ATOM     11  C   UNL     1      -9.304   2.633 -15.857  1.00  0.00    +0.056 A 
ENDROOT
BRANCH   1  12
ATOM     12  C   UNL     1      -8.474   0.257 -15.962  1.00  0.00    +0.122 C 
ATOM     13  C   UNL     1      -7.143   0.103 -15.240  1.00  0.00    +0.028 C 
ENDBRANCH   1  12
BRANCH   4  14
ATOM     14  C   UNL     1     -11.879   1.619 -12.538  1.00  0.00    +0.004 A 
ATOM     15  C   UNL     1     -11.418   0.664 -11.612  1.00  0.00    +0.039 A 
ATOM     16  C   UNL     1     -13.142   2.205 -12.341  1.00  0.00    +0.029 A 
ATOM     17  C   UNL     1     -12.207   0.274 -10.525  1.00  0.00    +0.079 A 
ATOM     18  C   UNL     1     -13.921   1.842 -11.242  1.00  0.00    +0.057 A 
ATOM     19  C   UNL     1     -13.451   0.889 -10.342  1.00  0.00    +0.147 A 
ATOM     20 Br   UNL     1     -13.840   3.526 -13.514  1.00  0.00    -0.050 Br
ATOM     21  F   UNL     1     -14.192   0.650  -9.251  1.00  0.00    -0.205 F 
BRANCH  17  22
ATOM     22  N   UNL     1     -11.672  -0.685  -9.635  1.00  0.00    -0.305 N 
ATOM     23  C   UNL     1     -11.054  -0.378  -8.429  1.00  0.00    +0.323 C 
ATOM     24  O   UNL     1     -11.104   0.718  -7.888  1.00  0.00    -0.248 OA
ATOM     25  N   UNL     1     -10.429  -1.508  -7.926  1.00  0.00    -0.308 N 
ATOM     26  H   UNL     1     -12.079  -1.608  -9.662  1.00  0.00    +0.171 HD
ATOM     27  H   UNL     1     -10.249  -2.233  -8.605  1.00  0.00    +0.171 HD
BRANCH  25  28
ATOM     28  C   UNL     1      -9.804  -1.659  -6.673  1.00  0.00    +0.042 A 
ATOM     29  C   UNL     1      -8.460  -1.367  -6.434  1.00  0.00    +0.026 A 
ATOM     30  C   UNL     1     -10.599  -2.106  -5.609  1.00  0.00    +0.026 A 
ATOM     31  C   UNL     1      -7.917  -1.529  -5.155  1.00  0.00    +0.002 A 
ATOM     32  C   UNL     1     -10.055  -2.270  -4.332  1.00  0.00    +0.002 A 
ATOM     33  C   UNL     1      -8.713  -1.981  -4.106  1.00  0.00    +0.000 A 
ENDBRANCH  25  28
ENDBRANCH  17  22
ENDBRANCH   4  14
BRANCH   9  34
ATOM     34  N   UNL     1      -7.705   4.728 -18.442  1.00  0.00    -0.373 N 
ATOM     35  C   UNL     1      -8.162   5.881 -19.201  1.00  0.00    +0.141 C 
ATOM     36  H   UNL     1      -7.553   3.921 -19.040  1.00  0.00    +0.161 HD
ENDBRANCH   9  34
TORSDOF 5
ENDMDL
MODEL 6
REMARK VINA RESULT:    -7.888      3.748      9.555
REMARK INTER + INTRA:         -11.214
REMARK INTER:                 -12.229
REMARK INTRA:                   1.015
REMARK UNBOUND:                -1.020
REMARK SMILES CCn1c(=O)c(-c2cc(NC(=O)Nc3ccccc3)c(F)cc2Br)cc2cnc(NC)cc21
REMARK SMILES IDX 3 1 4 2 5 3 6 4 25 5 26 6 27 7 28 8 29 9 32 10 33 11 2 12
REMARK SMILES IDX 1 13 7 14 8 15 23 16 9 17 22 18 20 19 24 20 21 21 10 22
REMARK SMILES IDX 11 23 12 24 13 25 14 28 15 29 19 30 16 31 18 32 17 33 30 34
REMARK SMILES IDX 31 35
REMARK H PARENT 10 26 13 27 30 36
ROOT
ATOM      1  N   UNL     1      -8.016   0.289 -14.550  1.00  0.00    -0.308 N 
ATOM      2  C   UNL     1      -9.166   0.997 -14.191  1.00  0.00    +0.258 C 
ATOM      3  O   UNL     1      -9.815   0.759 -13.171  1.00  0.00    -0.269 OA
ATOM      4  C   UNL     1      -9.623   2.087 -15.112  1.00  0.00    +0.049 C 
ATOM      5  C   UNL     1      -8.990   2.314 -16.272  1.00  0.00    +0.026 C 
ATOM      6  C   UNL     1      -7.829   1.517 -16.643  1.00  0.00    +0.018 A 
ATOM      7  C   UNL     1      -7.163   1.730 -17.842  1.00  0.00    +0.123 A 
ATOM      8  N   UNL     1      -6.086   1.024 -18.249  1.00  0.00    -0.239 NA
ATOM      9  C   UNL     1      -5.631   0.050 -17.441  1.00  0.00    +0.127 A 
ATOM     10  C   UNL     1      -6.233  -0.218 -16.210  1.00  0.00    +0.073 A 
ATOM     11  C   UNL     1      -7.348   0.518 -15.796  1.00  0.00    +0.056 A 
ENDROOT
BRANCH   1  12
ATOM     12  C   UNL     1      -7.556  -0.750 -13.629  1.00  0.00    +0.122 C 
ATOM     13  C   UNL     1      -6.559  -0.216 -12.611  1.00  0.00    +0.028 C 
ENDBRANCH   1  12
BRANCH   4  14
ATOM     14  C   UNL     1     -10.793   2.914 -14.757  1.00  0.00    +0.004 A 
ATOM     15  C   UNL     1     -11.720   2.388 -13.837  1.00  0.00    +0.039 A 
ATOM     16  C   UNL     1     -11.016   4.193 -15.294  1.00  0.00    +0.029 A 
ATOM     17  C   UNL     1     -12.866   3.107 -13.478  1.00  0.00    +0.079 A 
ATOM     18  C   UNL     1     -12.142   4.927 -14.918  1.00  0.00    +0.057 A 
ATOM     19  C   UNL     1     -13.052   4.387 -14.013  1.00  0.00    +0.147 A 
ATOM     20 Br   UNL     1      -9.809   5.005 -16.516  1.00  0.00    -0.050 Br
ATOM     21  F   UNL     1     -14.061   5.170 -13.608  1.00  0.00    -0.205 F 
BRANCH  17  22
ATOM     22  N   UNL     1     -13.746   2.515 -12.544  1.00  0.00    -0.305 N 
ATOM     23  C   UNL     1     -13.340   1.740 -11.465  1.00  0.00    +0.323 C 
ATOM     24  O   UNL     1     -12.187   1.670 -11.061  1.00  0.00    -0.248 OA
ATOM     25  N   UNL     1     -14.441   1.116 -10.901  1.00  0.00    -0.308 N 
ATOM     26  H   UNL     1     -14.638   2.968 -12.409  1.00  0.00    +0.171 HD
ATOM     27  H   UNL     1     -15.250   1.056 -11.500  1.00  0.00    +0.171 HD
BRANCH  25  28
ATOM     28  C   UNL     1     -14.483   0.351  -9.718  1.00  0.00    +0.042 A 
ATOM     29  C   UNL     1     -14.995   0.819  -8.507  1.00  0.00    +0.026 A 
ATOM     30  C   UNL     1     -14.000  -0.963  -9.786  1.00  0.00    +0.026 A 
ATOM     31  C   UNL     1     -15.014  -0.008  -7.379  1.00  0.00    +0.002 A 
ATOM     32  C   UNL     1     -14.018  -1.789  -8.659  1.00  0.00    +0.002 A 
ATOM     33  C   UNL     1     -14.525  -1.310  -7.455  1.00  0.00    +0.000 A 
ENDBRANCH  25  28
ENDBRANCH  17  22
ENDBRANCH   4  14
BRANCH   9  34
ATOM     34  N   UNL     1      -4.497  -0.700 -17.797  1.00  0.00    -0.373 N 
ATOM     35  C   UNL     1      -3.398   0.089 -18.329  1.00  0.00    +0.141 C 
ATOM     36  H   UNL     1      -4.771  -1.441 -18.436  1.00  0.00    +0.161 HD
ENDBRANCH   9  34
TORSDOF 5
ENDMDL
MODEL 7
REMARK VINA RESULT:    -7.706      3.752      4.387
REMARK INTER + INTRA:         -10.979
REMARK INTER:                 -10.481
REMARK INTRA:                  -0.498
REMARK UNBOUND:                -1.020
REMARK SMILES CCn1c(=O)c(-c2cc(NC(=O)Nc3ccccc3)c(F)cc2Br)cc2cnc(NC)cc21
REMARK SMILES IDX 3 1 4 2 5 3 6 4 25 5 26 6 27 7 28 8 29 9 32 10 33 11 2 12
REMARK SMILES IDX 1 13 7 14 8 15 23 16 9 17 22 18 20 19 24 20 21 21 10 22
REMARK SMILES IDX 11 23 12 24 13 25 14 28 15 29 19 30 16 31 18 32 17 33 30 34
REMARK SMILES IDX 31 35
REMARK H PARENT 10 26 13 27 30 36
ROOT
ATOM      1  N   UNL     1     -10.959  -2.465  -8.725  1.00  0.00    -0.308 N 
ATOM      2  C   UNL     1     -11.516  -1.692  -9.748  1.00  0.00    +0.258 C 
ATOM      3  O   UNL     1     -11.907  -2.167 -10.816  1.00  0.00    -0.269 OA
ATOM      4  C   UNL     1     -11.624  -0.215  -9.519  1.00  0.00    +0.049 C 
ATOM      5  C   UNL     1     -11.130   0.343  -8.404  1.00  0.00    +0.026 C 
ATOM      6  C   UNL     1     -10.502  -0.485  -7.385  1.00  0.00    +0.018 A 
ATOM      7  C   UNL     1      -9.977   0.073  -6.227  1.00  0.00    +0.123 A 
ATOM      8  N   UNL     1      -9.377  -0.636  -5.247  1.00  0.00    -0.239 NA
ATOM      9  C   UNL     1      -9.279  -1.967  -5.403  1.00  0.00    +0.127 A 
ATOM     10  C   UNL     1      -9.795  -2.609  -6.531  1.00  0.00    +0.073 A 
ATOM     11  C   UNL     1     -10.416  -1.868  -7.542  1.00  0.00    +0.056 A 
ENDROOT
BRANCH   1  12
ATOM     12  C   UNL     1     -10.889  -3.909  -8.941  1.00  0.00    +0.122 C 
ATOM     13  C   UNL     1     -12.157  -4.620  -8.491  1.00  0.00    +0.028 C 
ENDBRANCH   1  12
BRANCH   4  14
ATOM     14  C   UNL     1     -12.263   0.646 -10.533  1.00  0.00    +0.004 A 
ATOM     15  C   UNL     1     -11.501   1.021 -11.656  1.00  0.00    +0.039 A 
ATOM     16  C   UNL     1     -13.588   1.102 -10.425  1.00  0.00    +0.029 A 
ATOM     17  C   UNL     1     -12.035   1.860 -12.642  1.00  0.00    +0.079 A 
ATOM     18  C   UNL     1     -14.136   1.913 -11.419  1.00  0.00    +0.057 A 
ATOM     19  C   UNL     1     -13.364   2.281 -12.519  1.00  0.00    +0.147 A 
ATOM     20 Br   UNL     1     -14.708   0.625  -8.967  1.00  0.00    -0.050 Br
ATOM     21  F   UNL     1     -13.966   2.977 -13.492  1.00  0.00    -0.205 F 
BRANCH  17  22
ATOM     22  N   UNL     1     -11.211   2.186 -13.742  1.00  0.00    -0.305 N 
ATOM     23  C   UNL     1     -11.024   3.474 -14.229  1.00  0.00    +0.323 C 
ATOM     24  O   UNL     1     -11.355   4.491 -13.633  1.00  0.00    -0.248 OA
ATOM     25  N   UNL     1     -10.368   3.420 -15.448  1.00  0.00    -0.308 N 
ATOM     26  H   UNL     1     -10.443   1.561 -13.938  1.00  0.00    +0.171 HD
ATOM     27  H   UNL     1     -10.415   2.528 -15.918  1.00  0.00    +0.171 HD
BRANCH  25  28
ATOM     28  C   UNL     1      -9.876   4.500 -16.208  1.00  0.00    +0.042 A 
ATOM     29  C   UNL     1     -10.534   5.725 -16.335  1.00  0.00    +0.026 A 
ATOM     30  C   UNL     1      -8.642   4.325 -16.848  1.00  0.00    +0.026 A 
ATOM     31  C   UNL     1      -9.972   6.754 -17.098  1.00  0.00    +0.002 A 
ATOM     32  C   UNL     1      -8.081   5.353 -17.611  1.00  0.00    +0.002 A 
ATOM     33  C   UNL     1      -8.748   6.568 -17.736  1.00  0.00    +0.000 A 
ENDBRANCH  25  28
ENDBRANCH  17  22
ENDBRANCH   4  14
BRANCH   9  34
ATOM     34  N   UNL     1      -8.690  -2.762  -4.404  1.00  0.00    -0.373 N 
ATOM     35  C   UNL     1      -9.364  -2.705  -3.117  1.00  0.00    +0.141 C 
ATOM     36  H   UNL     1      -7.705  -2.525  -4.324  1.00  0.00    +0.161 HD
ENDBRANCH   9  34
TORSDOF 5
ENDMDL
MODEL 8
REMARK VINA RESULT:    -7.647      5.425      9.070
REMARK INTER + INTRA:         -10.903
REMARK INTER:                  -9.804
REMARK INTRA:                  -1.099
REMARK UNBOUND:                -1.020
REMARK SMILES CCn1c(=O)c(-c2cc(NC(=O)Nc3ccccc3)c(F)cc2Br)cc2cnc(NC)cc21
REMARK SMILES IDX 3 1 4 2 5 3 6 4 25 5 26 6 27 7 28 8 29 9 32 10 33 11 2 12
REMARK SMILES IDX 1 13 7 14 8 15 23 16 9 17 22 18 20 19 24 20 21 21 10 22
REMARK SMILES IDX 11 23 12 24 13 25 14 28 15 29 19 30 16 31 18 32 17 33 30 34
REMARK SMILES IDX 31 35
REMARK H PARENT 10 26 13 27 30 36
ROOT
ATOM      1  N   UNL     1      -3.064  -3.006 -15.917  1.00  0.00    -0.308 N 
ATOM      2  C   UNL     1      -3.912  -2.067 -15.323  1.00  0.00    +0.258 C 
ATOM      3  O   UNL     1      -3.553  -0.927 -15.025  1.00  0.00    -0.269 OA
ATOM      4  C   UNL     1      -5.320  -2.493 -15.033  1.00  0.00    +0.049 C 
ATOM      5  C   UNL     1      -5.717  -3.752 -15.266  1.00  0.00    +0.026 C 
ATOM      6  C   UNL     1      -4.789  -4.722 -15.830  1.00  0.00    +0.018 A 
ATOM      7  C   UNL     1      -5.177  -6.033 -16.072  1.00  0.00    +0.123 A 
ATOM      8  N   UNL     1      -4.366  -6.982 -16.587  1.00  0.00    -0.239 NA
ATOM      9  C   UNL     1      -3.101  -6.636 -16.882  1.00  0.00    +0.127 A 
ATOM     10  C   UNL     1      -2.635  -5.334 -16.684  1.00  0.00    +0.073 A 
ATOM     11  C   UNL     1      -3.482  -4.356 -16.151  1.00  0.00    +0.056 A 
ENDROOT
BRANCH   1  12
ATOM     12  C   UNL     1      -1.703  -2.574 -16.229  1.00  0.00    +0.122 C 
ATOM     13  C   UNL     1      -1.590  -2.003 -17.635  1.00  0.00    +0.028 C 
ENDBRANCH   1  12
BRANCH   4  14
ATOM     14  C   UNL     1      -6.282  -1.528 -14.467  1.00  0.00    +0.004 A 
ATOM     15  C   UNL     1      -6.936  -0.649 -15.351  1.00  0.00    +0.039 A 
ATOM     16  C   UNL     1      -6.571  -1.451 -13.093  1.00  0.00    +0.029 A 
ATOM     17  C   UNL     1      -7.839   0.310 -14.878  1.00  0.00    +0.079 A 
ATOM     18  C   UNL     1      -7.492  -0.517 -12.619  1.00  0.00    +0.057 A 
ATOM     19  C   UNL     1      -8.122   0.350 -13.508  1.00  0.00    +0.147 A 
ATOM     20 Br   UNL     1      -5.767  -2.614 -11.823  1.00  0.00    -0.050 Br
ATOM     21  F   UNL     1      -9.071   1.158 -13.017  1.00  0.00    -0.205 F 
BRANCH  17  22
ATOM     22  N   UNL     1      -8.460   1.152 -15.828  1.00  0.00    -0.305 N 
ATOM     23  C   UNL     1      -8.217   2.514 -15.950  1.00  0.00    +0.323 C 
ATOM     24  O   UNL     1      -7.281   3.097 -15.418  1.00  0.00    -0.248 OA
ATOM     25  N   UNL     1      -9.156   3.081 -16.796  1.00  0.00    -0.308 N 
ATOM     26  H   UNL     1      -8.780   0.717 -16.681  1.00  0.00    +0.171 HD
ATOM     27  H   UNL     1      -9.997   2.539 -16.923  1.00  0.00    +0.171 HD
BRANCH  25  28
ATOM     28  C   UNL     1      -9.186   4.403 -17.283  1.00  0.00    +0.042 A 
ATOM     29  C   UNL     1      -8.507   4.827 -18.426  1.00  0.00    +0.026 A 
ATOM     30  C   UNL     1      -9.970   5.328 -16.580  1.00  0.00    +0.026 A 
ATOM     31  C   UNL     1      -8.599   6.155 -18.854  1.00  0.00    +0.002 A 
ATOM     32  C   UNL     1     -10.062   6.656 -17.007  1.00  0.00    +0.002 A 
ATOM     33  C   UNL     1      -9.375   7.069 -18.144  1.00  0.00    +0.000 A 
ENDBRANCH  25  28
ENDBRANCH  17  22
ENDBRANCH   4  14
BRANCH   9  34
ATOM     34  N   UNL     1      -2.218  -7.573 -17.447  1.00  0.00    -0.373 N 
ATOM     35  C   UNL     1      -1.134  -6.985 -18.219  1.00  0.00    +0.141 C 
ATOM     36  H   UNL     1      -2.747  -8.246 -17.994  1.00  0.00    +0.161 HD
ENDBRANCH   9  34
TORSDOF 5
ENDMDL
MODEL 9
REMARK VINA RESULT:    -7.628      2.523      9.716
REMARK INTER + INTRA:         -10.879
REMARK INTER:                 -10.708
REMARK INTRA:                  -0.170
REMARK UNBOUND:                -1.020
REMARK SMILES CCn1c(=O)c(-c2cc(NC(=O)Nc3ccccc3)c(F)cc2Br)cc2cnc(NC)cc21
REMARK SMILES IDX 3 1 4 2 5 3 6 4 25 5 26 6 27 7 28 8 29 9 32 10 33 11 2 12
REMARK SMILES IDX 1 13 7 14 8 15 23 16 9 17 22 18 20 19 24 20 21 21 10 22
REMARK SMILES IDX 11 23 12 24 13 25 14 28 15 29 19 30 16 31 18 32 17 33 30 34
REMARK SMILES IDX 31 35
REMARK H PARENT 10 26 13 27 30 36
ROOT
ATOM      1  N   UNL     1     -10.933   4.516 -15.340  1.00  0.00    -0.308 N 
ATOM      2  C   UNL     1     -10.479   3.494 -14.502  1.00  0.00    +0.258 C 
ATOM      3  O   UNL     1     -10.982   3.247 -13.405  1.00  0.00    -0.269 OA
ATOM      4  C   UNL     1      -9.314   2.678 -14.976  1.00  0.00    +0.049 C 
ATOM      5  C   UNL     1      -8.690   2.976 -16.125  1.00  0.00    +0.026 C 
ATOM      6  C   UNL     1      -9.154   4.086 -16.945  1.00  0.00    +0.018 A 
ATOM      7  C   UNL     1      -8.519   4.417 -18.134  1.00  0.00    +0.123 A 
ATOM      8  N   UNL     1      -8.893   5.436 -18.938  1.00  0.00    -0.239 NA
ATOM      9  C   UNL     1      -9.947   6.179 -18.560  1.00  0.00    +0.127 A 
ATOM     10  C   UNL     1     -10.652   5.904 -17.387  1.00  0.00    +0.073 A 
ATOM     11  C   UNL     1     -10.258   4.846 -16.560  1.00  0.00    +0.056 A 
ENDROOT
BRANCH   1  12
ATOM     12  C   UNL     1     -12.092   5.285 -14.889  1.00  0.00    +0.122 C 
ATOM     13  C   UNL     1     -13.388   4.497 -15.011  1.00  0.00    +0.028 C 
ENDBRANCH   1  12
BRANCH   4  14
ATOM     14  C   UNL     1      -8.829   1.543 -14.167  1.00  0.00    +0.004 A 
ATOM     15  C   UNL     1      -9.761   0.566 -13.771  1.00  0.00    +0.039 A 
ATOM     16  C   UNL     1      -7.485   1.400 -13.779  1.00  0.00    +0.029 A 
ATOM     17  C   UNL     1      -9.374  -0.521 -12.979  1.00  0.00    +0.079 A 
ATOM     18  C   UNL     1      -7.087   0.303 -13.014  1.00  0.00    +0.057 A 
ATOM     19  C   UNL     1      -8.026  -0.649 -12.625  1.00  0.00    +0.147 A 
ATOM     20 Br   UNL     1      -6.144   2.646 -14.289  1.00  0.00    -0.050 Br
ATOM     21  F   UNL     1      -7.576  -1.733 -11.979  1.00  0.00    -0.205 F 
BRANCH  17  22
ATOM     22  N   UNL     1     -10.366  -1.465 -12.628  1.00  0.00    -0.305 N 
ATOM     23  C   UNL     1     -10.951  -1.560 -11.371  1.00  0.00    +0.323 C 
ATOM     24  O   UNL     1     -10.853  -0.706 -10.500  1.00  0.00    -0.248 OA
ATOM     25  N   UNL     1     -11.690  -2.729 -11.290  1.00  0.00    -0.308 N 
ATOM     26  H   UNL     1     -10.948  -1.813 -13.376  1.00  0.00    +0.171 HD
ATOM     27  H   UNL     1     -11.448  -3.434 -11.970  1.00  0.00    +0.171 HD
BRANCH  25  28
ATOM     28  C   UNL     1     -12.537  -3.138 -10.241  1.00  0.00    +0.042 A 
ATOM     29  C   UNL     1     -13.648  -2.412  -9.811  1.00  0.00    +0.026 A 
ATOM     30  C   UNL     1     -12.245  -4.360  -9.620  1.00  0.00    +0.026 A 
ATOM     31  C   UNL     1     -14.450  -2.894  -8.770  1.00  0.00    +0.002 A 
ATOM     32  C   UNL     1     -13.045  -4.841  -8.580  1.00  0.00    +0.002 A 
ATOM     33  C   UNL     1     -14.148  -4.106  -8.155  1.00  0.00    +0.000 A 
ENDBRANCH  25  28
ENDBRANCH  17  22
ENDBRANCH   4  14
BRANCH   9  34
ATOM     34  N   UNL     1     -10.402   7.236 -19.369  1.00  0.00    -0.373 N 
ATOM     35  C   UNL     1     -10.028   7.123 -20.769  1.00  0.00    +0.141 C 
ATOM     36  H   UNL     1     -10.098   8.120 -18.969  1.00  0.00    +0.161 HD
ENDBRANCH   9  34
TORSDOF 5
ENDMDL
MODEL 10
REMARK VINA RESULT:    -3.818      5.974      9.043
REMARK INTER + INTRA:          -5.954
REMARK INTER:                  -5.553
REMARK INTRA:                  -0.401
REMARK UNBOUND:                -1.020
REMARK SMILES CCn1c(=O)c(-c2cc(NC(=O)Nc3ccccc3)c(F)cc2Br)cc2cnc(NC)cc21
REMARK SMILES IDX 3 1 4 2 5 3 6 4 25 5 26 6 27 7 28 8 29 9 32 10 33 11 2 12
REMARK SMILES IDX 1 13 7 14 8 15 23 16 9 17 22 18 20 19 24 20 21 21 10 22
REMARK SMILES IDX 11 23 12 24 13 25 14 28 15 29 19 30 16 31 18 32 17 33 30 34
REMARK SMILES IDX 31 35
REMARK H PARENT 10 26 13 27 30 36
ROOT
ATOM      1  N   UNL     1      -5.462  -1.464 -16.291  1.00  0.00    -0.308 N 
ATOM      2  C   UNL     1      -6.568  -0.723 -15.867  1.00  0.00    +0.258 C 
ATOM      3  O   UNL     1      -7.620  -1.240 -15.487  1.00  0.00    -0.269 OA
ATOM      4  C   UNL     1      -6.452   0.771 -15.892  1.00  0.00    +0.049 C 
ATOM      5  C   UNL     1      -5.353   1.364 -16.380  1.00  0.00    +0.026 C 
ATOM      6  C   UNL     1      -4.242   0.562 -16.871  1.00  0.00    +0.018 A 
ATOM      7  C   UNL     1      -3.098   1.155 -17.386  1.00  0.00    +0.123 A 
ATOM      8  N   UNL     1      -2.035   0.471 -17.862  1.00  0.00    -0.239 NA
ATOM      9  C   UNL     1      -2.090  -0.872 -17.837  1.00  0.00    +0.127 A 
ATOM     10  C   UNL     1      -3.197  -1.548 -17.320  1.00  0.00    +0.073 A 
ATOM     11  C   UNL     1      -4.294  -0.832 -16.828  1.00  0.00    +0.056 A 
ENDROOT
BRANCH   1  12
ATOM     12  C   UNL     1      -5.569  -2.921 -16.230  1.00  0.00    +0.122 C 
ATOM     13  C   UNL     1      -5.139  -3.473 -14.879  1.00  0.00    +0.028 C 
ENDBRANCH   1  12
BRANCH   4  14
ATOM     14  C   UNL     1      -7.562   1.607 -15.395  1.00  0.00    +0.004 A 
ATOM     15  C   UNL     1      -8.214   2.454 -16.312  1.00  0.00    +0.039 A 
ATOM     16  C   UNL     1      -7.991   1.593 -14.057  1.00  0.00    +0.029 A 
ATOM     17  C   UNL     1      -9.255   3.295 -15.902  1.00  0.00    +0.079 A 
ATOM     18  C   UNL     1      -9.047   2.407 -13.648  1.00  0.00    +0.057 A 
ATOM     19  C   UNL     1      -9.674   3.244 -14.568  1.00  0.00    +0.147 A 
ATOM     20 Br   UNL     1      -7.199   0.462 -12.751  1.00  0.00    -0.050 Br
ATOM     21  F   UNL     1     -10.747   3.930 -14.149  1.00  0.00    -0.205 F 
BRANCH  17  22
ATOM     22  N   UNL     1      -9.864   4.111 -16.882  1.00  0.00    -0.305 N 
ATOM     23  C   UNL     1      -9.256   5.208 -17.480  1.00  0.00    +0.323 C 
ATOM     24  O   UNL     1      -8.060   5.457 -17.408  1.00  0.00    -0.248 OA
ATOM     25  N   UNL     1     -10.197   5.926 -18.200  1.00  0.00    -0.308 N 
ATOM     26  H   UNL     1     -10.582   3.683 -17.448  1.00  0.00    +0.171 HD
ATOM     27  H   UNL     1     -11.156   5.754 -17.937  1.00  0.00    +0.171 HD
BRANCH  25  28
ATOM     28  C   UNL     1      -9.972   7.025 -19.053  1.00  0.00    +0.042 A 
ATOM     29  C   UNL     1      -9.435   8.241 -18.628  1.00  0.00    +0.026 A 
ATOM     30  C   UNL     1     -10.289   6.861 -20.408  1.00  0.00    +0.026 A 
ATOM     31  C   UNL     1      -9.228   9.281 -19.541  1.00  0.00    +0.002 A 
ATOM     32  C   UNL     1     -10.083   7.900 -21.319  1.00  0.00    +0.002 A 
ATOM     33  C   UNL     1      -9.553   9.111 -20.884  1.00  0.00    +0.000 A 
ENDBRANCH  25  28
ENDBRANCH  17  22
ENDBRANCH   4  14
BRANCH   9  34
ATOM     34  N   UNL     1      -1.004  -1.640 -18.292  1.00  0.00    -0.373 N 
ATOM     35  C   UNL     1      -0.640  -1.401 -19.680  1.00  0.00    +0.141 C 
ATOM     36  H   UNL     1      -1.190  -2.623 -18.117  1.00  0.00    +0.161 HD
ENDBRANCH   9  34
TORSDOF 5
ENDMDL
