MODEL 1
REMARK VINA RESULT:    -8.216      0.000      0.000
REMARK INTER + INTRA:         -12.072
REMARK INTER:                 -11.098
REMARK INTRA:                  -0.973
REMARK UNBOUND:                -0.973
REMARK SMILES COc1cc2nccc(Oc3ccc(NC(=O)NC4CC4)c(Cl)c3)c2cc1C(N)=O
REMARK SMILES IDX 10 1 9 2 3 3 4 4 27 5 5 6 26 7 6 8 25 9 7 10 8 11 2 12 1 13
REMARK SMILES IDX 28 14 29 15 30 16 11 19 12 20 24 21 13 22 22 23 14 24 23 25
REMARK SMILES IDX 15 26 16 27 17 28 18 29 19 32 20 33 21 34
REMARK H PARENT 29 17 29 18 15 30 18 31
ROOT
ATOM      1  O   UNL     1      -8.962   2.142 -13.261  1.00  0.00    -0.457 OA
ENDROOT
BRANCH   1   2
ATOM      2  C   UNL     1     -10.233   2.627 -13.500  1.00  0.00    +0.138 A 
ATOM      3  C   UNL     1     -13.549   1.205 -11.291  1.00  0.00    +0.133 A 
ATOM      4  C   UNL     1     -13.664   2.209 -12.266  1.00  0.00    +0.076 A 
ATOM      5  C   UNL     1     -12.282   0.652 -11.034  1.00  0.00    +0.082 A 
ATOM      6  C   UNL     1     -12.575   2.680 -12.990  1.00  0.00    +0.078 A 
ATOM      7  C   UNL     1     -11.175   1.121 -11.761  1.00  0.00    +0.032 A 
ATOM      8  N   UNL     1     -12.776   3.645 -13.904  1.00  0.00    -0.256 NA
ATOM      9  C   UNL     1     -11.308   2.130 -12.738  1.00  0.00    +0.044 A 
ATOM     10  C   UNL     1     -11.713   4.111 -14.595  1.00  0.00    +0.115 A 
ATOM     11  C   UNL     1     -10.428   3.644 -14.428  1.00  0.00    +0.068 A 
BRANCH   3  12
ATOM     12  O   UNL     1     -14.618   0.730 -10.573  1.00  0.00    -0.496 OA
ATOM     13  C   UNL     1     -14.875   1.304  -9.294  1.00  0.00    +0.278 C 
ENDBRANCH   3  12
BRANCH   5  14
ATOM     14  C   UNL     1     -12.000  -0.424 -10.030  1.00  0.00    +0.252 C 
ATOM     15  N   UNL     1     -12.734  -1.571 -10.081  1.00  0.00    -0.365 N 
ATOM     16  O   UNL     1     -11.131  -0.291  -9.175  1.00  0.00    -0.269 OA
ATOM     17  H   UNL     1     -13.430  -1.723 -10.800  1.00  0.00    +0.159 HD
ATOM     18  H   UNL     1     -12.526  -2.306  -9.421  1.00  0.00    +0.159 HD
ENDBRANCH   5  14
ENDBRANCH   1   2
BRANCH   1  19
ATOM     19  C   UNL     1      -8.151   1.965 -14.359  1.00  0.00    +0.129 A 
ATOM     20  C   UNL     1      -8.286   0.763 -15.054  1.00  0.00    +0.049 A 
ATOM     21  C   UNL     1      -7.275   2.945 -14.821  1.00  0.00    +0.069 A 
ATOM     22  C   UNL     1      -7.515   0.518 -16.195  1.00  0.00    +0.031 A 
ATOM     23  C   UNL     1      -6.510   2.697 -15.964  1.00  0.00    +0.068 A 
ATOM     24  C   UNL     1      -6.617   1.480 -16.666  1.00  0.00    +0.061 A 
ATOM     25 Cl   UNL     1      -5.419   3.935 -16.495  1.00  0.00    -0.082 Cl
BRANCH  24  26
ATOM     26  N   UNL     1      -5.807   1.291 -17.811  1.00  0.00    -0.307 N 
ATOM     27  C   UNL     1      -4.559   0.709 -17.885  1.00  0.00    +0.319 C 
ATOM     28  O   UNL     1      -3.941   0.195 -16.962  1.00  0.00    -0.248 OA
ATOM     29  N   UNL     1      -4.069   0.757 -19.181  1.00  0.00    -0.335 N 
ATOM     30  H   UNL     1      -6.252   1.515 -18.691  1.00  0.00    +0.171 HD
ATOM     31  H   UNL     1      -4.455   1.467 -19.785  1.00  0.00    +0.165 HD
BRANCH  29  32
ATOM     32  C   UNL     1      -2.769   0.256 -19.509  1.00  0.00    +0.084 C 
ATOM     33  C   UNL     1      -1.547   1.110 -19.310  1.00  0.00    +0.027 C 
ATOM     34  C   UNL     1      -2.020   0.791 -20.698  1.00  0.00    +0.027 C 
ENDBRANCH  29  32
ENDBRANCH  24  26
ENDBRANCH   1  19
TORSDOF 6
ENDMDL
MODEL 2
REMARK VINA RESULT:    -7.967      3.489      4.633
REMARK INTER + INTRA:         -11.734
REMARK INTER:                 -11.512
REMARK INTRA:                  -0.222
REMARK UNBOUND:                -0.973
REMARK SMILES COc1cc2nccc(Oc3ccc(NC(=O)NC4CC4)c(Cl)c3)c2cc1C(N)=O
REMARK SMILES IDX 10 1 9 2 3 3 4 4 27 5 5 6 26 7 6 8 25 9 7 10 8 11 2 12 1 13
REMARK SMILES IDX 28 14 29 15 30 16 11 19 12 20 24 21 13 22 22 23 14 24 23 25
REMARK SMILES IDX 15 26 16 27 17 28 18 29 19 32 20 33 21 34
REMARK H PARENT 29 17 29 18 15 30 18 31
ROOT
ATOM      1  O   UNL     1      -8.753   2.708 -17.313  1.00  0.00    -0.457 OA
ENDROOT
BRANCH   1   2
ATOM      2  C   UNL     1      -9.607   3.590 -16.683  1.00  0.00    +0.138 A 
ATOM      3  C   UNL     1     -11.593   2.508 -13.108  1.00  0.00    +0.133 A 
ATOM      4  C   UNL     1     -11.728   3.777 -13.693  1.00  0.00    +0.076 A 
ATOM      5  C   UNL     1     -10.762   1.559 -13.729  1.00  0.00    +0.082 A 
ATOM      6  C   UNL     1     -11.073   4.135 -14.866  1.00  0.00    +0.078 A 
ATOM      7  C   UNL     1     -10.097   1.912 -14.916  1.00  0.00    +0.032 A 
ATOM      8  N   UNL     1     -11.260   5.373 -15.356  1.00  0.00    -0.256 NA
ATOM      9  C   UNL     1     -10.244   3.191 -15.491  1.00  0.00    +0.044 A 
ATOM     10  C   UNL     1     -10.610   5.723 -16.488  1.00  0.00    +0.115 A 
ATOM     11  C   UNL     1      -9.774   4.877 -17.182  1.00  0.00    +0.068 A 
BRANCH   3  12
ATOM     12  O   UNL     1     -12.238   2.142 -11.951  1.00  0.00    -0.496 OA
ATOM     13  C   UNL     1     -13.657   2.252 -11.912  1.00  0.00    +0.278 C 
ENDBRANCH   3  12
BRANCH   5  14
ATOM     14  C   UNL     1     -10.520   0.168 -13.230  1.00  0.00    +0.252 C 
ATOM     15  N   UNL     1     -10.432  -0.035 -11.885  1.00  0.00    -0.365 N 
ATOM     16  O   UNL     1     -10.401  -0.779 -14.000  1.00  0.00    -0.269 OA
ATOM     17  H   UNL     1     -10.564   0.721 -11.225  1.00  0.00    +0.159 HD
ATOM     18  H   UNL     1     -10.294  -0.977 -11.547  1.00  0.00    +0.159 HD
ENDBRANCH   5  14
ENDBRANCH   1   2
BRANCH   1  19
ATOM     19  C   UNL     1      -7.760   2.149 -16.540  1.00  0.00    +0.129 A 
ATOM     20  C   UNL     1      -7.039   3.016 -15.719  1.00  0.00    +0.049 A 
ATOM     21  C   UNL     1      -7.506   0.780 -16.505  1.00  0.00    +0.069 A 
ATOM     22  C   UNL     1      -6.031   2.522 -14.885  1.00  0.00    +0.031 A 
ATOM     23  C   UNL     1      -6.499   0.291 -15.668  1.00  0.00    +0.068 A 
ATOM     24  C   UNL     1      -5.747   1.154 -14.847  1.00  0.00    +0.061 A 
ATOM     25 Cl   UNL     1      -6.203  -1.417 -15.668  1.00  0.00    -0.082 Cl
BRANCH  24  26
ATOM     26  N   UNL     1      -4.737   0.593 -14.029  1.00  0.00    -0.307 N 
ATOM     27  C   UNL     1      -4.886  -0.119 -12.859  1.00  0.00    +0.319 C 
ATOM     28  O   UNL     1      -5.944  -0.445 -12.336  1.00  0.00    -0.248 OA
ATOM     29  N   UNL     1      -3.651  -0.457 -12.327  1.00  0.00    -0.335 N 
ATOM     30  H   UNL     1      -3.804   0.632 -14.417  1.00  0.00    +0.171 HD
ATOM     31  H   UNL     1      -2.867   0.114 -12.605  1.00  0.00    +0.165 HD
BRANCH  29  32
ATOM     32  C   UNL     1      -3.538  -1.162 -11.085  1.00  0.00    +0.084 C 
ATOM     33  C   UNL     1      -3.619  -0.426  -9.776  1.00  0.00    +0.027 C 
ATOM     34  C   UNL     1      -2.312  -1.010 -10.227  1.00  0.00    +0.027 C 
ENDBRANCH  29  32
ENDBRANCH  24  26
ENDBRANCH   1  19
TORSDOF 6
ENDMDL
MODEL 3
REMARK VINA RESULT:    -7.911      3.987     10.785
REMARK INTER + INTRA:         -11.659
REMARK INTER:                 -11.637
REMARK INTRA:                  -0.022
REMARK UNBOUND:                -0.973
REMARK SMILES COc1cc2nccc(Oc3ccc(NC(=O)NC4CC4)c(Cl)c3)c2cc1C(N)=O
REMARK SMILES IDX 10 1 9 2 3 3 4 4 27 5 5 6 26 7 6 8 25 9 7 10 8 11 2 12 1 13
REMARK SMILES IDX 28 14 29 15 30 16 11 19 12 20 24 21 13 22 22 23 14 24 23 25
REMARK SMILES IDX 15 26 16 27 17 28 18 29 19 32 20 33 21 34
REMARK H PARENT 29 17 29 18 15 30 18 31
ROOT
ATOM      1  O   UNL     1     -11.632   2.643 -12.722  1.00  0.00    -0.457 OA
ENDROOT
BRANCH   1   2
ATOM      2  C   UNL     1     -10.738   1.942 -13.507  1.00  0.00    +0.138 A 
ATOM      3  C   UNL     1      -9.037   3.702 -16.957  1.00  0.00    +0.133 A 
ATOM      4  C   UNL     1      -8.703   2.408 -16.526  1.00  0.00    +0.076 A 
ATOM      5  C   UNL     1      -9.970   4.445 -16.213  1.00  0.00    +0.082 A 
ATOM      6  C   UNL     1      -9.258   1.830 -15.390  1.00  0.00    +0.078 A 
ATOM      7  C   UNL     1     -10.537   3.869 -15.064  1.00  0.00    +0.032 A 
ATOM      8  N   UNL     1      -8.880   0.585 -15.049  1.00  0.00    -0.256 NA
ATOM      9  C   UNL     1     -10.191   2.568 -14.644  1.00  0.00    +0.044 A 
ATOM     10  C   UNL     1      -9.410   0.033 -13.936  1.00  0.00    +0.115 A 
ATOM     11  C   UNL     1     -10.332   0.666 -13.132  1.00  0.00    +0.068 A 
BRANCH   3  12
ATOM     12  O   UNL     1      -8.497   4.281 -18.079  1.00  0.00    -0.496 OA
ATOM     13  C   UNL     1      -7.094   4.525 -18.099  1.00  0.00    +0.278 C 
ENDBRANCH   3  12
BRANCH   5  14
ATOM     14  C   UNL     1     -10.428   5.832 -16.547  1.00  0.00    +0.252 C 
ATOM     15  N   UNL     1      -9.489   6.776 -16.838  1.00  0.00    -0.365 N 
ATOM     16  O   UNL     1     -11.618   6.128 -16.562  1.00  0.00    -0.269 OA
ATOM     17  H   UNL     1      -8.503   6.550 -16.870  1.00  0.00    +0.159 HD
ATOM     18  H   UNL     1      -9.800   7.704 -17.088  1.00  0.00    +0.159 HD
ENDBRANCH   5  14
ENDBRANCH   1   2
BRANCH   1  19
ATOM     19  C   UNL     1     -12.400   1.905 -11.850  1.00  0.00    +0.129 A 
ATOM     20  C   UNL     1     -13.764   2.192 -11.815  1.00  0.00    +0.049 A 
ATOM     21  C   UNL     1     -11.884   0.869 -11.074  1.00  0.00    +0.069 A 
ATOM     22  C   UNL     1     -14.616   1.469 -10.973  1.00  0.00    +0.031 A 
ATOM     23  C   UNL     1     -12.739   0.147 -10.238  1.00  0.00    +0.068 A 
ATOM     24  C   UNL     1     -14.116   0.437 -10.174  1.00  0.00    +0.061 A 
ATOM     25 Cl   UNL     1     -12.053  -1.122  -9.276  1.00  0.00    -0.082 Cl
BRANCH  24  26
ATOM     26  N   UNL     1     -14.924  -0.328  -9.299  1.00  0.00    -0.307 N 
ATOM     27  C   UNL     1     -15.511   0.068  -8.116  1.00  0.00    +0.319 C 
ATOM     28  O   UNL     1     -15.479   1.191  -7.629  1.00  0.00    -0.248 OA
ATOM     29  N   UNL     1     -16.186  -0.988  -7.523  1.00  0.00    -0.335 N 
ATOM     30  H   UNL     1     -15.186  -1.240  -9.648  1.00  0.00    +0.171 HD
ATOM     31  H   UNL     1     -15.892  -1.917  -7.784  1.00  0.00    +0.165 HD
BRANCH  29  32
ATOM     32  C   UNL     1     -16.842  -0.841  -6.259  1.00  0.00    +0.084 C 
ATOM     33  C   UNL     1     -17.403  -2.040  -5.544  1.00  0.00    +0.027 C 
ATOM     34  C   UNL     1     -18.331  -1.025  -6.144  1.00  0.00    +0.027 C 
ENDBRANCH  29  32
ENDBRANCH  24  26
ENDBRANCH   1  19
TORSDOF 6
ENDMDL
MODEL 4
REMARK VINA RESULT:    -7.768      5.159      9.192
REMARK INTER + INTRA:         -11.466
REMARK INTER:                 -10.790
REMARK INTRA:                  -0.676
REMARK UNBOUND:                -0.973
REMARK SMILES COc1cc2nccc(Oc3ccc(NC(=O)NC4CC4)c(Cl)c3)c2cc1C(N)=O
REMARK SMILES IDX 10 1 9 2 3 3 4 4 27 5 5 6 26 7 6 8 25 9 7 10 8 11 2 12 1 13
REMARK SMILES IDX 28 14 29 15 30 16 11 19 12 20 24 21 13 22 22 23 14 24 23 25
REMARK SMILES IDX 15 26 16 27 17 28 18 29 19 32 20 33 21 34
REMARK H PARENT 29 17 29 18 15 30 18 31
ROOT
ATOM      1  O   UNL     1      -5.481   1.876 -14.352  1.00  0.00    -0.457 OA
ENDROOT
BRANCH   1   2
ATOM      2  C   UNL     1      -5.504   0.509 -14.542  1.00  0.00    +0.138 A 
ATOM      3  C   UNL     1      -2.762  -1.362 -17.164  1.00  0.00    +0.133 A 
ATOM      4  C   UNL     1      -3.706  -2.084 -16.417  1.00  0.00    +0.076 A 
ATOM      5  C   UNL     1      -2.720   0.037 -17.034  1.00  0.00    +0.082 A 
ATOM      6  C   UNL     1      -4.606  -1.471 -15.552  1.00  0.00    +0.078 A 
ATOM      7  C   UNL     1      -3.626   0.666 -16.163  1.00  0.00    +0.032 A 
ATOM      8  N   UNL     1      -5.476  -2.240 -14.876  1.00  0.00    -0.256 NA
ATOM      9  C   UNL     1      -4.570  -0.074 -15.420  1.00  0.00    +0.044 A 
ATOM     10  C   UNL     1      -6.338  -1.642 -14.024  1.00  0.00    +0.115 A 
ATOM     11  C   UNL     1      -6.390  -0.282 -13.818  1.00  0.00    +0.068 A 
BRANCH   3  12
ATOM     12  O   UNL     1      -1.871  -1.957 -18.024  1.00  0.00    -0.496 OA
ATOM     13  C   UNL     1      -0.882  -2.820 -17.472  1.00  0.00    +0.278 C 
ENDBRANCH   3  12
BRANCH   5  14
ATOM     14  C   UNL     1      -1.775   0.942 -17.763  1.00  0.00    +0.252 C 
ATOM     15  N   UNL     1      -2.199   1.536 -18.914  1.00  0.00    -0.365 N 
ATOM     16  O   UNL     1      -0.641   1.154 -17.347  1.00  0.00    -0.269 OA
ATOM     17  H   UNL     1      -3.142   1.409 -19.260  1.00  0.00    +0.159 HD
ATOM     18  H   UNL     1      -1.570   2.166 -19.392  1.00  0.00    +0.159 HD
ENDBRANCH   5  14
ENDBRANCH   1   2
BRANCH   1  19
ATOM     19  C   UNL     1      -6.096   2.645 -15.315  1.00  0.00    +0.129 A 
ATOM     20  C   UNL     1      -5.273   3.471 -16.080  1.00  0.00    +0.049 A 
ATOM     21  C   UNL     1      -7.462   2.576 -15.582  1.00  0.00    +0.069 A 
ATOM     22  C   UNL     1      -5.819   4.264 -17.096  1.00  0.00    +0.031 A 
ATOM     23  C   UNL     1      -8.001   3.368 -16.600  1.00  0.00    +0.068 A 
ATOM     24  C   UNL     1      -7.189   4.224 -17.369  1.00  0.00    +0.061 A 
ATOM     25 Cl   UNL     1      -9.707   3.266 -16.888  1.00  0.00    -0.082 Cl
BRANCH  24  26
ATOM     26  N   UNL     1      -7.801   5.004 -18.378  1.00  0.00    -0.307 N 
ATOM     27  C   UNL     1      -8.570   6.139 -18.230  1.00  0.00    +0.319 C 
ATOM     28  O   UNL     1      -8.820   6.714 -17.179  1.00  0.00    -0.248 OA
ATOM     29  N   UNL     1      -9.032   6.585 -19.458  1.00  0.00    -0.335 N 
ATOM     30  H   UNL     1      -7.549   4.753 -19.325  1.00  0.00    +0.171 HD
ATOM     31  H   UNL     1      -9.079   5.904 -20.200  1.00  0.00    +0.165 HD
BRANCH  29  32
ATOM     32  C   UNL     1      -9.892   7.726 -19.565  1.00  0.00    +0.084 C 
ATOM     33  C   UNL     1     -10.305   8.249 -20.912  1.00  0.00    +0.027 C 
ATOM     34  C   UNL     1      -9.359   9.043 -20.060  1.00  0.00    +0.027 C 
ENDBRANCH  29  32
ENDBRANCH  24  26
ENDBRANCH   1  19
TORSDOF 6
ENDMDL
MODEL 5
REMARK VINA RESULT:    -7.742      4.751      6.671
REMARK INTER + INTRA:         -11.431
REMARK INTER:                 -10.633
REMARK INTRA:                  -0.798
REMARK UNBOUND:                -0.973
REMARK SMILES COc1cc2nccc(Oc3ccc(NC(=O)NC4CC4)c(Cl)c3)c2cc1C(N)=O
REMARK SMILES IDX 10 1 9 2 3 3 4 4 27 5 5 6 26 7 6 8 25 9 7 10 8 11 2 12 1 13
REMARK SMILES IDX 28 14 29 15 30 16 11 19 12 20 24 21 13 22 22 23 14 24 23 25
REMARK SMILES IDX 15 26 16 27 17 28 18 29 19 32 20 33 21 34
REMARK H PARENT 29 17 29 18 15 30 18 31
ROOT
ATOM      1  O   UNL     1     -11.511  -0.315 -10.069  1.00  0.00    -0.457 OA
ENDROOT
BRANCH   1   2
ATOM      2  C   UNL     1     -12.097  -1.556 -10.216  1.00  0.00    +0.138 A 
ATOM      3  C   UNL     1     -15.809  -2.431  -8.385  1.00  0.00    +0.133 A 
ATOM      4  C   UNL     1     -15.131  -3.354  -9.197  1.00  0.00    +0.076 A 
ATOM      5  C   UNL     1     -15.237  -1.164  -8.174  1.00  0.00    +0.082 A 
ATOM      6  C   UNL     1     -13.913  -3.067  -9.802  1.00  0.00    +0.078 A 
ATOM      7  C   UNL     1     -14.006  -0.865  -8.781  1.00  0.00    +0.032 A 
ATOM      8  N   UNL     1     -13.333  -4.010 -10.565  1.00  0.00    -0.256 NA
ATOM      9  C   UNL     1     -13.337  -1.804  -9.593  1.00  0.00    +0.044 A 
ATOM     10  C   UNL     1     -12.157  -3.721 -11.164  1.00  0.00    +0.115 A 
ATOM     11  C   UNL     1     -11.504  -2.517 -11.028  1.00  0.00    +0.068 A 
BRANCH   3  12
ATOM     12  O   UNL     1     -17.011  -2.705  -7.779  1.00  0.00    -0.496 OA
ATOM     13  C   UNL     1     -16.990  -3.330  -6.499  1.00  0.00    +0.278 C 
ENDBRANCH   3  12
BRANCH   5  14
ATOM     14  C   UNL     1     -15.837  -0.078  -7.334  1.00  0.00    +0.252 C 
ATOM     15  N   UNL     1     -16.592   0.877  -7.947  1.00  0.00    -0.365 N 
ATOM     16  O   UNL     1     -15.661  -0.034  -6.122  1.00  0.00    -0.269 OA
ATOM     17  H   UNL     1     -16.785   0.844  -8.940  1.00  0.00    +0.159 HD
ATOM     18  H   UNL     1     -17.017   1.594  -7.377  1.00  0.00    +0.159 HD
ENDBRANCH   5  14
ENDBRANCH   1   2
BRANCH   1  19
ATOM     19  C   UNL     1     -11.519   0.507 -11.173  1.00  0.00    +0.129 A 
ATOM     20  C   UNL     1     -10.483   0.337 -12.092  1.00  0.00    +0.049 A 
ATOM     21  C   UNL     1     -12.533   1.429 -11.425  1.00  0.00    +0.069 A 
ATOM     22  C   UNL     1     -10.435   1.118 -13.252  1.00  0.00    +0.031 A 
ATOM     23  C   UNL     1     -12.482   2.204 -12.588  1.00  0.00    +0.068 A 
ATOM     24  C   UNL     1     -11.432   2.060 -13.516  1.00  0.00    +0.061 A 
ATOM     25 Cl   UNL     1     -13.754   3.351 -12.854  1.00  0.00    -0.082 Cl
BRANCH  24  26
ATOM     26  N   UNL     1     -11.437   2.882 -14.668  1.00  0.00    -0.307 N 
ATOM     27  C   UNL     1     -10.403   3.634 -15.184  1.00  0.00    +0.319 C 
ATOM     28  O   UNL     1      -9.257   3.681 -14.758  1.00  0.00    -0.248 OA
ATOM     29  N   UNL     1     -10.819   4.344 -16.299  1.00  0.00    -0.335 N 
ATOM     30  H   UNL     1     -12.273   2.819 -15.234  1.00  0.00    +0.171 HD
ATOM     31  H   UNL     1     -11.809   4.521 -16.381  1.00  0.00    +0.165 HD
BRANCH  29  32
ATOM     32  C   UNL     1      -9.937   5.236 -16.991  1.00  0.00    +0.084 C 
ATOM     33  C   UNL     1     -10.006   6.719 -16.752  1.00  0.00    +0.027 C 
ATOM     34  C   UNL     1     -10.460   6.150 -18.065  1.00  0.00    +0.027 C 
ENDBRANCH  29  32
ENDBRANCH  24  26
ENDBRANCH   1  19
TORSDOF 6
ENDMDL
MODEL 6
REMARK VINA RESULT:    -7.721      4.915      6.654
REMARK INTER + INTRA:         -11.403
REMARK INTER:                 -10.851
REMARK INTRA:                  -0.552
REMARK UNBOUND:                -0.973
REMARK SMILES COc1cc2nccc(Oc3ccc(NC(=O)NC4CC4)c(Cl)c3)c2cc1C(N)=O
REMARK SMILES IDX 10 1 9 2 3 3 4 4 27 5 5 6 26 7 6 8 25 9 7 10 8 11 2 12 1 13
REMARK SMILES IDX 28 14 29 15 30 16 11 19 12 20 24 21 13 22 22 23 14 24 23 25
REMARK SMILES IDX 15 26 16 27 17 28 18 29 19 32 20 33 21 34
REMARK H PARENT 29 17 29 18 15 30 18 31
ROOT
ATOM      1  O   UNL     1     -12.452   0.057 -10.900  1.00  0.00    -0.457 OA
ENDROOT
BRANCH   1   2
ATOM      2  C   UNL     1     -13.159   0.329  -9.746  1.00  0.00    +0.138 A 
ATOM      3  C   UNL     1     -11.235   0.356  -5.978  1.00  0.00    +0.133 A 
ATOM      4  C   UNL     1     -12.598   0.658  -6.133  1.00  0.00    +0.076 A 
ATOM      5  C   UNL     1     -10.477   0.036  -7.118  1.00  0.00    +0.082 A 
ATOM      6  C   UNL     1     -13.231   0.653  -7.371  1.00  0.00    +0.078 A 
ATOM      7  C   UNL     1     -11.108   0.028  -8.374  1.00  0.00    +0.032 A 
ATOM      8  N   UNL     1     -14.539   0.956  -7.428  1.00  0.00    -0.256 NA
ATOM      9  C   UNL     1     -12.478   0.333  -8.512  1.00  0.00    +0.044 A 
ATOM     10  C   UNL     1     -15.147   0.965  -8.635  1.00  0.00    +0.115 A 
ATOM     11  C   UNL     1     -14.506   0.667  -9.817  1.00  0.00    +0.068 A 
BRANCH   3  12
ATOM     12  O   UNL     1     -10.601   0.354  -4.760  1.00  0.00    -0.496 OA
ATOM     13  C   UNL     1     -11.406   0.313  -3.585  1.00  0.00    +0.278 C 
ENDBRANCH   3  12
BRANCH   5  14
ATOM     14  C   UNL     1      -9.020  -0.310  -7.114  1.00  0.00    +0.252 C 
ATOM     15  N   UNL     1      -8.120   0.665  -6.803  1.00  0.00    -0.365 N 
ATOM     16  O   UNL     1      -8.628  -1.441  -7.381  1.00  0.00    -0.269 OA
ATOM     17  H   UNL     1      -8.417   1.597  -6.542  1.00  0.00    +0.159 HD
ATOM     18  H   UNL     1      -7.139   0.425  -6.775  1.00  0.00    +0.159 HD
ENDBRANCH   5  14
ENDBRANCH   1   2
BRANCH   1  19
ATOM     19  C   UNL     1     -12.218   1.116 -11.747  1.00  0.00    +0.129 A 
ATOM     20  C   UNL     1     -10.925   1.245 -12.253  1.00  0.00    +0.049 A 
ATOM     21  C   UNL     1     -13.218   1.998 -12.152  1.00  0.00    +0.069 A 
ATOM     22  C   UNL     1     -10.613   2.282 -13.139  1.00  0.00    +0.031 A 
ATOM     23  C   UNL     1     -12.903   3.030 -13.041  1.00  0.00    +0.068 A 
ATOM     24  C   UNL     1     -11.597   3.187 -13.545  1.00  0.00    +0.061 A 
ATOM     25 Cl   UNL     1     -14.172   4.115 -13.506  1.00  0.00    -0.082 Cl
BRANCH  24  26
ATOM     26  N   UNL     1     -11.345   4.259 -14.435  1.00  0.00    -0.307 N 
ATOM     27  C   UNL     1     -10.583   4.253 -15.583  1.00  0.00    +0.319 C 
ATOM     28  O   UNL     1     -10.019   3.284 -16.075  1.00  0.00    -0.248 OA
ATOM     29  N   UNL     1     -10.539   5.516 -16.153  1.00  0.00    -0.335 N 
ATOM     30  H   UNL     1     -11.882   5.098 -14.256  1.00  0.00    +0.171 HD
ATOM     31  H   UNL     1     -10.723   6.296 -15.540  1.00  0.00    +0.165 HD
BRANCH  29  32
ATOM     32  C   UNL     1      -9.771   5.779 -17.333  1.00  0.00    +0.084 C 
ATOM     33  C   UNL     1      -9.388   7.186 -17.699  1.00  0.00    +0.027 C 
ATOM     34  C   UNL     1     -10.402   6.448 -18.523  1.00  0.00    +0.027 C 
ENDBRANCH  29  32
ENDBRANCH  24  26
ENDBRANCH   1  19
TORSDOF 6
ENDMDL
MODEL 7
REMARK VINA RESULT:    -7.717      4.040      5.085
REMARK INTER + INTRA:         -11.397
REMARK INTER:                 -12.019
REMARK INTRA:                   0.622
REMARK UNBOUND:                -0.973
REMARK SMILES COc1cc2nccc(Oc3ccc(NC(=O)NC4CC4)c(Cl)c3)c2cc1C(N)=O
REMARK SMILES IDX 10 1 9 2 3 3 4 4 27 5 5 6 26 7 6 8 25 9 7 10 8 11 2 12 1 13
REMARK SMILES IDX 28 14 29 15 30 16 11 19 12 20 24 21 13 22 22 23 14 24 23 25
REMARK SMILES IDX 15 26 16 27 17 28 18 29 19 32 20 33 21 34
REMARK H PARENT 29 17 29 18 15 30 18 31
ROOT
ATOM      1  O   UNL     1     -10.314   1.959 -14.306  1.00  0.00    -0.457 OA
ENDROOT
BRANCH   1   2
ATOM      2  C   UNL     1     -11.465   2.169 -13.573  1.00  0.00    +0.138 A 
ATOM      3  C   UNL     1     -12.350  -0.214 -10.192  1.00  0.00    +0.133 A 
ATOM      4  C   UNL     1     -13.173   0.846 -10.605  1.00  0.00    +0.076 A 
ATOM      5  C   UNL     1     -11.184  -0.494 -10.925  1.00  0.00    +0.082 A 
ATOM      6  C   UNL     1     -12.881   1.632 -11.714  1.00  0.00    +0.078 A 
ATOM      7  C   UNL     1     -10.881   0.295 -12.048  1.00  0.00    +0.032 A 
ATOM      8  N   UNL     1     -13.725   2.628 -12.039  1.00  0.00    -0.256 NA
ATOM      9  C   UNL     1     -11.719   1.356 -12.451  1.00  0.00    +0.044 A 
ATOM     10  C   UNL     1     -13.430   3.400 -13.108  1.00  0.00    +0.115 A 
ATOM     11  C   UNL     1     -12.318   3.218 -13.899  1.00  0.00    +0.068 A 
BRANCH   3  12
ATOM     12  O   UNL     1     -12.630  -1.000  -9.100  1.00  0.00    -0.496 OA
ATOM     13  C   UNL     1     -13.749  -0.650  -8.292  1.00  0.00    +0.278 C 
ENDBRANCH   3  12
BRANCH   5  14
ATOM     14  C   UNL     1     -10.211  -1.589 -10.611  1.00  0.00    +0.252 C 
ATOM     15  N   UNL     1      -9.512  -1.524  -9.443  1.00  0.00    -0.365 N 
ATOM     16  O   UNL     1     -10.036  -2.530 -11.377  1.00  0.00    -0.269 OA
ATOM     17  H   UNL     1      -9.664  -0.779  -8.774  1.00  0.00    +0.159 HD
ATOM     18  H   UNL     1      -8.875  -2.276  -9.220  1.00  0.00    +0.159 HD
ENDBRANCH   5  14
ENDBRANCH   1   2
BRANCH   1  19
ATOM     19  C   UNL     1      -9.998   2.912 -15.248  1.00  0.00    +0.129 A 
ATOM     20  C   UNL     1      -9.234   2.492 -16.336  1.00  0.00    +0.049 A 
ATOM     21  C   UNL     1     -10.459   4.225 -15.182  1.00  0.00    +0.069 A 
ATOM     22  C   UNL     1      -8.892   3.395 -17.349  1.00  0.00    +0.031 A 
ATOM     23  C   UNL     1     -10.118   5.122 -16.198  1.00  0.00    +0.068 A 
ATOM     24  C   UNL     1      -9.329   4.721 -17.294  1.00  0.00    +0.061 A 
ATOM     25 Cl   UNL     1     -10.697   6.751 -16.069  1.00  0.00    -0.082 Cl
BRANCH  24  26
ATOM     26  N   UNL     1      -9.014   5.683 -18.283  1.00  0.00    -0.307 N 
ATOM     27  C   UNL     1      -9.864   6.294 -19.180  1.00  0.00    +0.319 C 
ATOM     28  O   UNL     1     -11.077   6.148 -19.246  1.00  0.00    -0.248 OA
ATOM     29  N   UNL     1      -9.164   7.143 -20.023  1.00  0.00    -0.335 N 
ATOM     30  H   UNL     1      -8.067   6.038 -18.247  1.00  0.00    +0.171 HD
ATOM     31  H   UNL     1      -8.178   6.957 -20.137  1.00  0.00    +0.165 HD
BRANCH  29  32
ATOM     32  C   UNL     1      -9.819   7.862 -21.074  1.00  0.00    +0.084 C 
ATOM     33  C   UNL     1     -10.521   7.127 -22.182  1.00  0.00    +0.027 C 
ATOM     34  C   UNL     1      -9.248   7.870 -22.466  1.00  0.00    +0.027 C 
ENDBRANCH  29  32
ENDBRANCH  24  26
ENDBRANCH   1  19
TORSDOF 6
ENDMDL
MODEL 8
REMARK VINA RESULT:    -7.656      3.488      5.044
REMARK INTER + INTRA:         -11.315
REMARK INTER:                 -10.903
REMARK INTRA:                  -0.412
REMARK UNBOUND:                -0.973
REMARK SMILES COc1cc2nccc(Oc3ccc(NC(=O)NC4CC4)c(Cl)c3)c2cc1C(N)=O
REMARK SMILES IDX 10 1 9 2 3 3 4 4 27 5 5 6 26 7 6 8 25 9 7 10 8 11 2 12 1 13
REMARK SMILES IDX 28 14 29 15 30 16 11 19 12 20 24 21 13 22 22 23 14 24 23 25
REMARK SMILES IDX 15 26 16 27 17 28 18 29 19 32 20 33 21 34
REMARK H PARENT 29 17 29 18 15 30 18 31
ROOT
ATOM      1  O   UNL     1      -6.802   4.457 -17.520  1.00  0.00    -0.457 OA
ENDROOT
BRANCH   1   2
ATOM      2  C   UNL     1      -8.118   4.835 -17.699  1.00  0.00    +0.138 A 
ATOM      3  C   UNL     1     -11.040   3.972 -14.764  1.00  0.00    +0.133 A 
ATOM      4  C   UNL     1     -11.335   4.683 -15.938  1.00  0.00    +0.076 A 
ATOM      5  C   UNL     1      -9.721   3.533 -14.550  1.00  0.00    +0.082 A 
ATOM      6  C   UNL     1     -10.375   4.970 -16.902  1.00  0.00    +0.078 A 
ATOM      7  C   UNL     1      -8.744   3.818 -15.518  1.00  0.00    +0.032 A 
ATOM      8  N   UNL     1     -10.746   5.656 -17.997  1.00  0.00    -0.256 NA
ATOM      9  C   UNL     1      -9.058   4.532 -16.694  1.00  0.00    +0.044 A 
ATOM     10  C   UNL     1      -9.807   5.947 -18.924  1.00  0.00    +0.115 A 
ATOM     11  C   UNL     1      -8.487   5.568 -18.821  1.00  0.00    +0.068 A 
BRANCH   3  12
ATOM     12  O   UNL     1     -11.981   3.680 -13.807  1.00  0.00    -0.496 OA
ATOM     13  C   UNL     1     -13.308   4.156 -14.005  1.00  0.00    +0.278 C 
ENDBRANCH   3  12
BRANCH   5  14
ATOM     14  C   UNL     1      -9.253   2.765 -13.352  1.00  0.00    +0.252 C 
ATOM     15  N   UNL     1     -10.072   1.809 -12.830  1.00  0.00    -0.365 N 
ATOM     16  O   UNL     1      -8.160   2.979 -12.839  1.00  0.00    -0.269 OA
ATOM     17  H   UNL     1     -10.964   1.585 -13.256  1.00  0.00    +0.159 HD
ATOM     18  H   UNL     1      -9.746   1.274 -12.039  1.00  0.00    +0.159 HD
ENDBRANCH   5  14
ENDBRANCH   1   2
BRANCH   1  19
ATOM     19  C   UNL     1      -6.566   3.116 -17.318  1.00  0.00    +0.129 A 
ATOM     20  C   UNL     1      -7.179   2.229 -18.203  1.00  0.00    +0.049 A 
ATOM     21  C   UNL     1      -5.708   2.637 -16.330  1.00  0.00    +0.069 A 
ATOM     22  C   UNL     1      -6.968   0.851 -18.079  1.00  0.00    +0.031 A 
ATOM     23  C   UNL     1      -5.499   1.260 -16.212  1.00  0.00    +0.068 A 
ATOM     24  C   UNL     1      -6.126   0.348 -17.084  1.00  0.00    +0.061 A 
ATOM     25 Cl   UNL     1      -4.439   0.705 -14.958  1.00  0.00    -0.082 Cl
BRANCH  24  26
ATOM     26  N   UNL     1      -5.877  -1.033 -16.904  1.00  0.00    -0.307 N 
ATOM     27  C   UNL     1      -6.305  -1.851 -15.880  1.00  0.00    +0.319 C 
ATOM     28  O   UNL     1      -7.037  -1.531 -14.953  1.00  0.00    -0.248 OA
ATOM     29  N   UNL     1      -5.808  -3.136 -16.035  1.00  0.00    -0.335 N 
ATOM     30  H   UNL     1      -5.418  -1.489 -17.682  1.00  0.00    +0.171 HD
ATOM     31  H   UNL     1      -4.974  -3.235 -16.594  1.00  0.00    +0.165 HD
BRANCH  29  32
ATOM     32  C   UNL     1      -6.076  -4.163 -15.073  1.00  0.00    +0.084 C 
ATOM     33  C   UNL     1      -5.047  -5.218 -14.774  1.00  0.00    +0.027 C 
ATOM     34  C   UNL     1      -6.301  -5.584 -15.513  1.00  0.00    +0.027 C 
ENDBRANCH  29  32
ENDBRANCH  24  26
ENDBRANCH   1  19
TORSDOF 6
ENDMDL
MODEL 9
REMARK VINA RESULT:    -7.637      4.669      6.955
REMARK INTER + INTRA:         -11.289
REMARK INTER:                  -9.948
REMARK INTRA:                  -1.341
REMARK UNBOUND:                -0.973
REMARK SMILES COc1cc2nccc(Oc3ccc(NC(=O)NC4CC4)c(Cl)c3)c2cc1C(N)=O
REMARK SMILES IDX 10 1 9 2 3 3 4 4 27 5 5 6 26 7 6 8 25 9 7 10 8 11 2 12 1 13
REMARK SMILES IDX 28 14 29 15 30 16 11 19 12 20 24 21 13 22 22 23 14 24 23 25
REMARK SMILES IDX 15 26 16 27 17 28 18 29 19 32 20 33 21 34
REMARK H PARENT 29 17 29 18 15 30 18 31
ROOT
ATOM      1  O   UNL     1      -8.593   1.009 -16.143  1.00  0.00    -0.457 OA
ENDROOT
BRANCH   1   2
ATOM      2  C   UNL     1      -9.453   1.830 -15.442  1.00  0.00    +0.138 A 
ATOM      3  C   UNL     1     -10.163   5.807 -16.699  1.00  0.00    +0.133 A 
ATOM      4  C   UNL     1     -10.807   5.239 -15.588  1.00  0.00    +0.076 A 
ATOM      5  C   UNL     1      -9.250   5.024 -17.427  1.00  0.00    +0.082 A 
ATOM      6  C   UNL     1     -10.578   3.931 -15.176  1.00  0.00    +0.078 A 
ATOM      7  C   UNL     1      -9.011   3.702 -17.018  1.00  0.00    +0.032 A 
ATOM      8  N   UNL     1     -11.239   3.468 -14.100  1.00  0.00    -0.256 NA
ATOM      9  C   UNL     1      -9.665   3.146 -15.898  1.00  0.00    +0.044 A 
ATOM     10  C   UNL     1     -11.025   2.192 -13.712  1.00  0.00    +0.115 A 
ATOM     11  C   UNL     1     -10.153   1.335 -14.347  1.00  0.00    +0.068 A 
BRANCH   3  12
ATOM     12  O   UNL     1     -10.380   7.099 -17.112  1.00  0.00    -0.496 OA
ATOM     13  C   UNL     1      -9.900   8.156 -16.288  1.00  0.00    +0.278 C 
ENDBRANCH   3  12
BRANCH   5  14
ATOM     14  C   UNL     1      -8.486   5.488 -18.629  1.00  0.00    +0.252 C 
ATOM     15  N   UNL     1      -9.118   6.286 -19.535  1.00  0.00    -0.365 N 
ATOM     16  O   UNL     1      -7.316   5.166 -18.809  1.00  0.00    -0.269 OA
ATOM     17  H   UNL     1     -10.070   6.598 -19.392  1.00  0.00    +0.159 HD
ATOM     18  H   UNL     1      -8.595   6.619 -20.332  1.00  0.00    +0.159 HD
ENDBRANCH   5  14
ENDBRANCH   1   2
BRANCH   1  19
ATOM     19  C   UNL     1      -7.437   0.630 -15.498  1.00  0.00    +0.129 A 
ATOM     20  C   UNL     1      -6.641   1.651 -14.981  1.00  0.00    +0.049 A 
ATOM     21  C   UNL     1      -7.084  -0.703 -15.295  1.00  0.00    +0.069 A 
ATOM     22  C   UNL     1      -5.463   1.346 -14.290  1.00  0.00    +0.031 A 
ATOM     23  C   UNL     1      -5.909  -1.003 -14.602  1.00  0.00    +0.068 A 
ATOM     24  C   UNL     1      -5.081   0.016 -14.091  1.00  0.00    +0.061 A 
ATOM     25 Cl   UNL     1      -5.497  -2.673 -14.387  1.00  0.00    -0.082 Cl
BRANCH  24  26
ATOM     26  N   UNL     1      -3.901  -0.357 -13.405  1.00  0.00    -0.307 N 
ATOM     27  C   UNL     1      -3.716  -0.515 -12.048  1.00  0.00    +0.319 C 
ATOM     28  O   UNL     1      -4.574  -0.408 -11.181  1.00  0.00    -0.248 OA
ATOM     29  N   UNL     1      -2.399  -0.840 -11.764  1.00  0.00    -0.335 N 
ATOM     30  H   UNL     1      -3.135  -0.647 -13.999  1.00  0.00    +0.171 HD
ATOM     31  H   UNL     1      -1.709  -0.581 -12.453  1.00  0.00    +0.165 HD
BRANCH  29  32
ATOM     32  C   UNL     1      -1.944  -1.012 -10.417  1.00  0.00    +0.084 C 
ATOM     33  C   UNL     1      -0.758  -0.243  -9.905  1.00  0.00    +0.027 C 
ATOM     34  C   UNL     1      -0.649  -1.722 -10.131  1.00  0.00    +0.027 C 
ENDBRANCH  29  32
ENDBRANCH  24  26
ENDBRANCH   1  19
TORSDOF 6
ENDMDL
MODEL 10
REMARK VINA RESULT:    -7.635      4.275      5.717
REMARK INTER + INTRA:         -11.287
REMARK INTER:                 -10.470
REMARK INTRA:                  -0.817
REMARK UNBOUND:                -0.973
REMARK SMILES COc1cc2nccc(Oc3ccc(NC(=O)NC4CC4)c(Cl)c3)c2cc1C(N)=O
REMARK SMILES IDX 10 1 9 2 3 3 4 4 27 5 5 6 26 7 6 8 25 9 7 10 8 11 2 12 1 13
REMARK SMILES IDX 28 14 29 15 30 16 11 19 12 20 24 21 13 22 22 23 14 24 23 25
REMARK SMILES IDX 15 26 16 27 17 28 18 29 19 32 20 33 21 34
REMARK H PARENT 29 17 29 18 15 30 18 31
ROOT
ATOM      1  O   UNL     1     -10.440  -1.133 -13.063  1.00  0.00    -0.457 OA
ENDROOT
BRANCH   1   2
ATOM      2  C   UNL     1      -9.888  -1.335 -11.814  1.00  0.00    +0.138 A 
ATOM      3  C   UNL     1     -12.283  -1.175  -8.330  1.00  0.00    +0.133 A 
ATOM      4  C   UNL     1     -10.911  -1.472  -8.291  1.00  0.00    +0.076 A 
ATOM      5  C   UNL     1     -12.888  -0.926  -9.575  1.00  0.00    +0.082 A 
ATOM      6  C   UNL     1     -10.123  -1.528  -9.435  1.00  0.00    +0.078 A 
ATOM      7  C   UNL     1     -12.100  -0.980 -10.736  1.00  0.00    +0.032 A 
ATOM      8  N   UNL     1      -8.817  -1.820  -9.306  1.00  0.00    -0.256 NA
ATOM      9  C   UNL     1     -10.722  -1.278 -10.680  1.00  0.00    +0.044 A 
ATOM     10  C   UNL     1      -8.058  -1.889 -10.421  1.00  0.00    +0.115 A 
ATOM     11  C   UNL     1      -8.542  -1.662 -11.691  1.00  0.00    +0.068 A 
BRANCH   3  12
ATOM     12  O   UNL     1     -13.070  -1.114  -7.206  1.00  0.00    -0.496 OA
ATOM     13  C   UNL     1     -12.977   0.047  -6.386  1.00  0.00    +0.278 C 
ENDBRANCH   3  12
BRANCH   5  14
ATOM     14  C   UNL     1     -14.335  -0.596  -9.777  1.00  0.00    +0.252 C 
ATOM     15  N   UNL     1     -15.274  -1.464  -9.307  1.00  0.00    -0.365 N 
ATOM     16  O   UNL     1     -14.684   0.429 -10.353  1.00  0.00    -0.269 OA
ATOM     17  H   UNL     1     -15.015  -2.299  -8.795  1.00  0.00    +0.159 HD
ATOM     18  H   UNL     1     -16.249  -1.228  -9.421  1.00  0.00    +0.159 HD
ENDBRANCH   5  14
ENDBRANCH   1   2
BRANCH   1  19
ATOM     19  C   UNL     1     -10.365   0.143 -13.573  1.00  0.00    +0.129 A 
ATOM     20  C   UNL     1      -9.261   0.438 -14.373  1.00  0.00    +0.049 A 
ATOM     21  C   UNL     1     -11.360   1.099 -13.375  1.00  0.00    +0.069 A 
ATOM     22  C   UNL     1      -9.125   1.705 -14.949  1.00  0.00    +0.031 A 
ATOM     23  C   UNL     1     -11.221   2.363 -13.955  1.00  0.00    +0.068 A 
ATOM     24  C   UNL     1     -10.102   2.685 -14.748  1.00  0.00    +0.061 A 
ATOM     25 Cl   UNL     1     -12.471   3.529 -13.668  1.00  0.00    -0.082 Cl
BRANCH  24  26
ATOM     26  N   UNL     1     -10.020   3.986 -15.299  1.00  0.00    -0.307 N 
ATOM     27  C   UNL     1      -9.538   4.360 -16.534  1.00  0.00    +0.319 C 
ATOM     28  O   UNL     1      -9.134   3.611 -17.414  1.00  0.00    -0.248 OA
ATOM     29  N   UNL     1      -9.580   5.738 -16.683  1.00  0.00    -0.335 N 
ATOM     30  H   UNL     1     -10.473   4.709 -14.755  1.00  0.00    +0.171 HD
ATOM     31  H   UNL     1      -9.593   6.285 -15.836  1.00  0.00    +0.165 HD
BRANCH  29  32
ATOM     32  C   UNL     1      -9.090   6.378 -17.867  1.00  0.00    +0.084 C 
ATOM     33  C   UNL     1      -9.467   7.800 -18.180  1.00  0.00    +0.027 C 
ATOM     34  C   UNL     1     -10.016   6.679 -19.014  1.00  0.00    +0.027 C 
ENDBRANCH  29  32
ENDBRANCH  24  26
ENDBRANCH   1  19
TORSDOF 6
ENDMDL
