MODEL 1
REMARK VINA RESULT:    -9.980      0.000      0.000
REMARK INTER + INTRA:         -13.399
REMARK INTER:                 -12.605
REMARK INTRA:                  -0.794
REMARK UNBOUND:                -0.794
REMARK SMILES Cn1cc(-c2cc3c(N4CCN(c5ncc([C@@](C)(N)c6ccc(F)cc6)cn5)CC4)ncnn3c2)cn1
REMARK SMILES IDX 13 1 14 2 15 3 16 4 27 5 28 6 12 7 5 8 6 9 35 10 7 11 34 12
REMARK SMILES IDX 8 13 33 14 9 15 31 16 32 17 10 18 30 19 11 20 29 21 4 22
REMARK SMILES IDX 2 23 3 24 37 25 36 26 1 27 17 28 18 29 19 30 20 33 21 34
REMARK SMILES IDX 26 35 22 36 25 37 23 38 24 39
REMARK H PARENT 19 31 19 32
ROOT
ATOM      1  C   UNL     1      -6.706  -1.227 -14.668  1.00  0.00    +0.225 A 
ATOM      2  N   UNL     1      -6.618  -1.865 -15.844  1.00  0.00    -0.221 NA
ATOM      3  C   UNL     1      -6.117  -3.119 -15.846  1.00  0.00    +0.122 A 
ATOM      4  C   UNL     1      -5.676  -3.794 -14.724  1.00  0.00    +0.013 A 
ATOM      5  C   UNL     1      -5.833  -3.062 -13.568  1.00  0.00    +0.122 A 
ATOM      6  N   UNL     1      -6.323  -1.802 -13.518  1.00  0.00    -0.221 NA
ENDROOT
BRANCH   1   7
ATOM      7  N   UNL     1      -7.244   0.063 -14.634  1.00  0.00    -0.337 N 
ATOM      8  C   UNL     1     -10.524   5.789 -17.140  1.00  0.00    +0.005 A 
ATOM      9  C   UNL     1      -9.749   4.722 -16.616  1.00  0.00    +0.042 A 
ATOM     10  C   UNL     1     -11.645   5.897 -16.351  1.00  0.00    +0.122 A 
ATOM     11  C   UNL     1     -10.442   4.194 -15.539  1.00  0.00    +0.108 A 
ATOM     12  N   UNL     1     -11.568   4.949 -15.369  1.00  0.00    -0.235 N 
ATOM     13  C   UNL     1     -10.201   3.129 -14.600  1.00  0.00    +0.156 C 
ATOM     14  N   UNL     1     -12.451   4.799 -14.373  1.00  0.00    -0.156 NA
ATOM     15  N   UNL     1      -9.156   2.217 -14.645  1.00  0.00    -0.351 N 
ATOM     16  N   UNL     1     -11.056   3.017 -13.619  1.00  0.00    -0.215 NA
ATOM     17  C   UNL     1     -12.141   3.850 -13.549  1.00  0.00    +0.247 C 
ATOM     18  C   UNL     1      -8.493   1.806 -13.390  1.00  0.00    +0.139 C 
ATOM     19  C   UNL     1      -8.354   1.937 -15.842  1.00  0.00    +0.139 C 
ATOM     20  C   UNL     1      -8.051   0.332 -13.432  1.00  0.00    +0.141 C 
ATOM     21  C   UNL     1      -7.891   0.465 -15.892  1.00  0.00    +0.141 C 
BRANCH   8  22
ATOM     22  C   UNL     1     -10.175   6.611 -18.289  1.00  0.00    +0.021 A 
ATOM     23  N   UNL     1      -9.910   7.432 -20.299  1.00  0.00    -0.275 N 
ATOM     24  C   UNL     1     -10.439   6.375 -19.618  1.00  0.00    +0.117 A 
ATOM     25  N   UNL     1      -9.315   8.342 -19.504  1.00  0.00    -0.181 NA
ATOM     26  C   UNL     1      -9.480   7.838 -18.276  1.00  0.00    +0.143 A 
ATOM     27  C   UNL     1      -9.933   7.645 -21.726  1.00  0.00    +0.173 C 
ENDBRANCH   8  22
ENDBRANCH   1   7
BRANCH   4  28
ATOM     28  C   UNL     1      -5.125  -5.212 -14.785  1.00  0.00    +0.067 C 
ATOM     29  C   UNL     1      -4.544  -5.702 -13.433  1.00  0.00    +0.038 C 
BRANCH  28  30
ATOM     30  N   UNL     1      -6.258  -6.113 -15.053  1.00  0.00    -0.318 NA
ATOM     31  H   UNL     1      -6.003  -6.789 -15.770  1.00  0.00    +0.120 HD
ATOM     32  H   UNL     1      -7.055  -5.582 -15.396  1.00  0.00    +0.120 HD
ENDBRANCH  28  30
BRANCH  28  33
ATOM     33  C   UNL     1      -3.991  -5.343 -15.833  1.00  0.00    -0.024 A 
ATOM     34  C   UNL     1      -4.063  -6.362 -16.811  1.00  0.00    +0.009 A 
ATOM     35  C   UNL     1      -2.868  -4.490 -15.862  1.00  0.00    +0.009 A 
ATOM     36  C   UNL     1      -3.061  -6.518 -17.771  1.00  0.00    +0.039 A 
ATOM     37  C   UNL     1      -1.867  -4.648 -16.826  1.00  0.00    +0.039 A 
ATOM     38  C   UNL     1      -1.973  -5.660 -17.771  1.00  0.00    +0.123 A 
ATOM     39  F   UNL     1      -1.012  -5.808 -18.691  1.00  0.00    -0.207 F 
ENDBRANCH  28  33
ENDBRANCH   4  28
TORSDOF 5
ENDMDL
MODEL 2
REMARK VINA RESULT:    -9.813      1.518      2.036
REMARK INTER + INTRA:         -13.189
REMARK INTER:                 -12.306
REMARK INTRA:                  -0.883
REMARK UNBOUND:                -0.794
REMARK SMILES Cn1cc(-c2cc3c(N4CCN(c5ncc([C@@](C)(N)c6ccc(F)cc6)cn5)CC4)ncnn3c2)cn1
REMARK SMILES IDX 13 1 14 2 15 3 16 4 27 5 28 6 12 7 5 8 6 9 35 10 7 11 34 12
REMARK SMILES IDX 8 13 33 14 9 15 31 16 32 17 10 18 30 19 11 20 29 21 4 22
REMARK SMILES IDX 2 23 3 24 37 25 36 26 1 27 17 28 18 29 19 30 20 33 21 34
REMARK SMILES IDX 26 35 22 36 25 37 23 38 24 39
REMARK H PARENT 19 31 19 32
ROOT
ATOM      1  C   UNL     1      -5.316  -0.614 -14.972  1.00  0.00    +0.225 A 
ATOM      2  N   UNL     1      -5.110  -1.317 -13.848  1.00  0.00    -0.221 NA
ATOM      3  C   UNL     1      -4.381  -2.450 -13.937  1.00  0.00    +0.122 A 
ATOM      4  C   UNL     1      -3.838  -2.949 -15.104  1.00  0.00    +0.013 A 
ATOM      5  C   UNL     1      -4.085  -2.142 -16.193  1.00  0.00    +0.122 A 
ATOM      6  N   UNL     1      -4.814  -1.004 -16.153  1.00  0.00    -0.221 NA
ENDROOT
BRANCH   1   7
ATOM      7  N   UNL     1      -6.046   0.576 -14.904  1.00  0.00    -0.337 N 
ATOM      8  C   UNL     1     -10.219   5.765 -17.243  1.00  0.00    +0.005 A 
ATOM      9  C   UNL     1      -9.279   4.823 -16.753  1.00  0.00    +0.042 A 
ATOM     10  C   UNL     1     -11.328   5.686 -16.432  1.00  0.00    +0.122 A 
ATOM     11  C   UNL     1      -9.860   4.177 -15.674  1.00  0.00    +0.108 A 
ATOM     12  N   UNL     1     -11.085   4.746 -15.469  1.00  0.00    -0.235 N 
ATOM     13  C   UNL     1      -9.439   3.147 -14.760  1.00  0.00    +0.156 C 
ATOM     14  N   UNL     1     -11.915   4.445 -14.461  1.00  0.00    -0.156 NA
ATOM     15  N   UNL     1      -8.267   2.409 -14.840  1.00  0.00    -0.351 N 
ATOM     16  N   UNL     1     -10.247   2.888 -13.766  1.00  0.00    -0.215 NA
ATOM     17  C   UNL     1     -11.446   3.543 -13.661  1.00  0.00    +0.247 C 
ATOM     18  C   UNL     1      -7.524   2.085 -13.605  1.00  0.00    +0.139 C 
ATOM     19  C   UNL     1      -7.456   2.275 -16.056  1.00  0.00    +0.139 C 
ATOM     20  C   UNL     1      -6.860   0.697 -13.683  1.00  0.00    +0.141 C 
ATOM     21  C   UNL     1      -6.772   0.893 -16.142  1.00  0.00    +0.141 C 
BRANCH   8  22
ATOM     22  C   UNL     1     -10.025   6.650 -18.381  1.00  0.00    +0.021 A 
ATOM     23  N   UNL     1      -9.933   7.535 -20.380  1.00  0.00    -0.275 N 
ATOM     24  C   UNL     1     -10.281   6.400 -19.710  1.00  0.00    +0.117 A 
ATOM     25  N   UNL     1      -9.464   8.512 -19.579  1.00  0.00    -0.181 NA
ATOM     26  C   UNL     1      -9.523   7.967 -18.358  1.00  0.00    +0.143 A 
ATOM     27  C   UNL     1     -10.021   7.766 -21.801  1.00  0.00    +0.173 C 
ENDBRANCH   8  22
ENDBRANCH   1   7
BRANCH   4  28
ATOM     28  C   UNL     1      -3.017  -4.231 -15.144  1.00  0.00    +0.067 C 
ATOM     29  C   UNL     1      -1.591  -4.028 -15.717  1.00  0.00    +0.038 C 
BRANCH  28  30
ATOM     30  N   UNL     1      -2.803  -4.661 -13.753  1.00  0.00    -0.318 NA
ATOM     31  H   UNL     1      -2.328  -5.561 -13.736  1.00  0.00    +0.120 HD
ATOM     32  H   UNL     1      -3.696  -4.773 -13.279  1.00  0.00    +0.120 HD
ENDBRANCH  28  30
BRANCH  28  33
ATOM     33  C   UNL     1      -3.697  -5.321 -16.013  1.00  0.00    -0.024 A 
ATOM     34  C   UNL     1      -3.021  -5.825 -17.148  1.00  0.00    +0.009 A 
ATOM     35  C   UNL     1      -4.976  -5.842 -15.730  1.00  0.00    +0.009 A 
ATOM     36  C   UNL     1      -3.597  -6.804 -17.959  1.00  0.00    +0.039 A 
ATOM     37  C   UNL     1      -5.550  -6.823 -16.545  1.00  0.00    +0.039 A 
ATOM     38  C   UNL     1      -4.856  -7.295 -17.650  1.00  0.00    +0.123 A 
ATOM     39  F   UNL     1      -5.410  -8.234 -18.428  1.00  0.00    -0.207 F 
ENDBRANCH  28  33
ENDBRANCH   4  28
TORSDOF 5
ENDMDL
MODEL 3
REMARK VINA RESULT:    -9.501      5.829      9.014
REMARK INTER + INTRA:         -12.794
REMARK INTER:                 -12.146
REMARK INTRA:                  -0.647
REMARK UNBOUND:                -0.794
REMARK SMILES Cn1cc(-c2cc3c(N4CCN(c5ncc([C@@](C)(N)c6ccc(F)cc6)cn5)CC4)ncnn3c2)cn1
REMARK SMILES IDX 13 1 14 2 15 3 16 4 27 5 28 6 12 7 5 8 6 9 35 10 7 11 34 12
REMARK SMILES IDX 8 13 33 14 9 15 31 16 32 17 10 18 30 19 11 20 29 21 4 22
REMARK SMILES IDX 2 23 3 24 37 25 36 26 1 27 17 28 18 29 19 30 20 33 21 34
REMARK SMILES IDX 26 35 22 36 25 37 23 38 24 39
REMARK H PARENT 19 31 19 32
ROOT
ATOM      1  C   UNL     1     -12.234   0.851 -11.380  1.00  0.00    +0.225 A 
ATOM      2  N   UNL     1     -11.508   0.390 -10.351  1.00  0.00    -0.221 NA
ATOM      3  C   UNL     1     -12.151   0.127  -9.192  1.00  0.00    +0.122 A 
ATOM      4  C   UNL     1     -13.504   0.308  -8.983  1.00  0.00    +0.013 A 
ATOM      5  C   UNL     1     -14.160   0.759 -10.107  1.00  0.00    +0.122 A 
ATOM      6  N   UNL     1     -13.558   1.042 -11.284  1.00  0.00    -0.221 NA
ENDROOT
BRANCH   1   7
ATOM      7  N   UNL     1     -11.598   1.107 -12.598  1.00  0.00    -0.337 N 
ATOM      8  C   UNL     1      -8.419   4.988 -17.563  1.00  0.00    +0.005 A 
ATOM      9  C   UNL     1      -9.160   4.180 -16.662  1.00  0.00    +0.042 A 
ATOM     10  C   UNL     1      -7.160   4.439 -17.654  1.00  0.00    +0.122 A 
ATOM     11  C   UNL     1      -8.316   3.179 -16.210  1.00  0.00    +0.108 A 
ATOM     12  N   UNL     1      -7.122   3.329 -16.856  1.00  0.00    -0.235 N 
ATOM     13  C   UNL     1      -8.455   2.064 -15.309  1.00  0.00    +0.156 C 
ATOM     14  N   UNL     1      -6.078   2.497 -16.745  1.00  0.00    -0.156 NA
ATOM     15  N   UNL     1      -9.559   1.783 -14.516  1.00  0.00    -0.351 N 
ATOM     16  N   UNL     1      -7.438   1.248 -15.237  1.00  0.00    -0.215 NA
ATOM     17  C   UNL     1      -6.297   1.499 -15.952  1.00  0.00    +0.247 C 
ATOM     18  C   UNL     1      -9.996   0.382 -14.346  1.00  0.00    +0.139 C 
ATOM     19  C   UNL     1     -10.596   2.761 -14.168  1.00  0.00    +0.139 C 
ATOM     20  C   UNL     1     -10.555   0.124 -12.935  1.00  0.00    +0.141 C 
ATOM     21  C   UNL     1     -11.177   2.506 -12.760  1.00  0.00    +0.141 C 
BRANCH   8  22
ATOM     22  C   UNL     1      -8.917   6.165 -18.259  1.00  0.00    +0.021 A 
ATOM     23  N   UNL     1      -9.610   7.598 -19.760  1.00  0.00    -0.275 N 
ATOM     24  C   UNL     1      -9.152   6.323 -19.606  1.00  0.00    +0.117 A 
ATOM     25  N   UNL     1      -9.689   8.285 -18.604  1.00  0.00    -0.181 NA
ATOM     26  C   UNL     1      -9.266   7.406 -17.690  1.00  0.00    +0.143 A 
ATOM     27  C   UNL     1      -9.996   8.238 -20.994  1.00  0.00    +0.173 C 
ENDBRANCH   8  22
ENDBRANCH   1   7
BRANCH   4  28
ATOM     28  C   UNL     1     -14.177  -0.012  -7.655  1.00  0.00    +0.067 C 
ATOM     29  C   UNL     1     -13.340   0.421  -6.424  1.00  0.00    +0.038 C 
BRANCH  28  30
ATOM     30  N   UNL     1     -15.403   0.798  -7.576  1.00  0.00    -0.318 NA
ATOM     31  H   UNL     1     -15.403   1.503  -8.310  1.00  0.00    +0.120 HD
ATOM     32  H   UNL     1     -15.446   1.283  -6.682  1.00  0.00    +0.120 HD
ENDBRANCH  28  30
BRANCH  28  33
ATOM     33  C   UNL     1     -14.448  -1.530  -7.500  1.00  0.00    -0.024 A 
ATOM     34  C   UNL     1     -15.777  -1.986  -7.343  1.00  0.00    +0.009 A 
ATOM     35  C   UNL     1     -13.423  -2.498  -7.502  1.00  0.00    +0.009 A 
ATOM     36  C   UNL     1     -16.066  -3.344  -7.196  1.00  0.00    +0.039 A 
ATOM     37  C   UNL     1     -13.716  -3.858  -7.356  1.00  0.00    +0.039 A 
ATOM     38  C   UNL     1     -15.033  -4.268  -7.205  1.00  0.00    +0.123 A 
ATOM     39  F   UNL     1     -15.308  -5.571  -7.065  1.00  0.00    -0.207 F 
ENDBRANCH  28  33
ENDBRANCH   4  28
TORSDOF 5
ENDMDL
MODEL 4
REMARK VINA RESULT:    -9.456      7.466      9.053
REMARK INTER + INTRA:         -12.738
REMARK INTER:                 -12.023
REMARK INTRA:                  -0.715
REMARK UNBOUND:                -0.794
REMARK SMILES Cn1cc(-c2cc3c(N4CCN(c5ncc([C@@](C)(N)c6ccc(F)cc6)cn5)CC4)ncnn3c2)cn1
REMARK SMILES IDX 13 1 14 2 15 3 16 4 27 5 28 6 12 7 5 8 6 9 35 10 7 11 34 12
REMARK SMILES IDX 8 13 33 14 9 15 31 16 32 17 10 18 30 19 11 20 29 21 4 22
REMARK SMILES IDX 2 23 3 24 37 25 36 26 1 27 17 28 18 29 19 30 20 33 21 34
REMARK SMILES IDX 26 35 22 36 25 37 23 38 24 39
REMARK H PARENT 19 31 19 32
ROOT
ATOM      1  C   UNL     1     -11.616  -2.925  -9.842  1.00  0.00    +0.225 A 
ATOM      2  N   UNL     1     -12.423  -3.751 -10.524  1.00  0.00    -0.221 NA
ATOM      3  C   UNL     1     -12.655  -4.977 -10.005  1.00  0.00    +0.122 A 
ATOM      4  C   UNL     1     -12.112  -5.450  -8.826  1.00  0.00    +0.013 A 
ATOM      5  C   UNL     1     -11.320  -4.516  -8.193  1.00  0.00    +0.122 A 
ATOM      6  N   UNL     1     -11.055  -3.282  -8.677  1.00  0.00    -0.221 NA
ENDROOT
BRANCH   1   7
ATOM      7  N   UNL     1     -11.380  -1.641 -10.344  1.00  0.00    -0.337 N 
ATOM      8  C   UNL     1      -9.556   3.217 -15.127  1.00  0.00    +0.005 A 
ATOM      9  C   UNL     1      -9.812   2.288 -14.086  1.00  0.00    +0.042 A 
ATOM     10  C   UNL     1     -10.699   3.965 -15.290  1.00  0.00    +0.122 A 
ATOM     11  C   UNL     1     -11.118   2.480 -13.668  1.00  0.00    +0.108 A 
ATOM     12  N   UNL     1     -11.624   3.531 -14.380  1.00  0.00    -0.235 N 
ATOM     13  C   UNL     1     -11.963   1.880 -12.668  1.00  0.00    +0.156 C 
ATOM     14  N   UNL     1     -12.836   4.071 -14.198  1.00  0.00    -0.156 NA
ATOM     15  N   UNL     1     -11.655   0.770 -11.894  1.00  0.00    -0.351 N 
ATOM     16  N   UNL     1     -13.129   2.439 -12.484  1.00  0.00    -0.215 NA
ATOM     17  C   UNL     1     -13.516   3.503 -13.254  1.00  0.00    +0.247 C 
ATOM     18  C   UNL     1     -12.054   0.741 -10.471  1.00  0.00    +0.139 C 
ATOM     19  C   UNL     1     -10.605  -0.201 -12.222  1.00  0.00    +0.139 C 
ATOM     20  C   UNL     1     -12.443  -0.677 -10.014  1.00  0.00    +0.141 C 
ATOM     21  C   UNL     1     -10.974  -1.626 -11.757  1.00  0.00    +0.141 C 
BRANCH   8  22
ATOM     22  C   UNL     1      -8.308   3.350 -15.864  1.00  0.00    +0.021 A 
ATOM     23  N   UNL     1      -6.255   3.161 -16.597  1.00  0.00    -0.275 N 
ATOM     24  C   UNL     1      -7.117   2.694 -15.649  1.00  0.00    +0.117 A 
ATOM     25  N   UNL     1      -6.801   4.080 -17.416  1.00  0.00    -0.181 NA
ATOM     26  C   UNL     1      -8.056   4.192 -16.966  1.00  0.00    +0.143 A 
ATOM     27  C   UNL     1      -4.878   2.773 -16.785  1.00  0.00    +0.173 C 
ENDBRANCH   8  22
ENDBRANCH   1   7
BRANCH   4  28
ATOM     28  C   UNL     1     -12.413  -6.840  -8.286  1.00  0.00    +0.067 C 
ATOM     29  C   UNL     1     -12.394  -7.940  -9.379  1.00  0.00    +0.038 C 
BRANCH  28  30
ATOM     30  N   UNL     1     -11.319  -7.205  -7.371  1.00  0.00    -0.318 NA
ATOM     31  H   UNL     1     -11.114  -6.428  -6.746  1.00  0.00    +0.120 HD
ATOM     32  H   UNL     1     -10.474  -7.409  -7.899  1.00  0.00    +0.120 HD
ENDBRANCH  28  30
BRANCH  28  33
ATOM     33  C   UNL     1     -13.808  -6.905  -7.612  1.00  0.00    -0.024 A 
ATOM     34  C   UNL     1     -14.499  -8.137  -7.563  1.00  0.00    +0.009 A 
ATOM     35  C   UNL     1     -14.438  -5.780  -7.040  1.00  0.00    +0.009 A 
ATOM     36  C   UNL     1     -15.759  -8.239  -6.969  1.00  0.00    +0.039 A 
ATOM     37  C   UNL     1     -15.699  -5.886  -6.445  1.00  0.00    +0.039 A 
ATOM     38  C   UNL     1     -16.347  -7.113  -6.414  1.00  0.00    +0.123 A 
ATOM     39  F   UNL     1     -17.555  -7.209  -5.845  1.00  0.00    -0.207 F 
ENDBRANCH  28  33
ENDBRANCH   4  28
TORSDOF 5
ENDMDL
MODEL 5
REMARK VINA RESULT:    -9.424      6.152     10.790
REMARK INTER + INTRA:         -12.697
REMARK INTER:                 -12.057
REMARK INTRA:                  -0.640
REMARK UNBOUND:                -0.794
REMARK SMILES Cn1cc(-c2cc3c(N4CCN(c5ncc([C@@](C)(N)c6ccc(F)cc6)cn5)CC4)ncnn3c2)cn1
REMARK SMILES IDX 13 1 14 2 15 3 16 4 27 5 28 6 12 7 5 8 6 9 35 10 7 11 34 12
REMARK SMILES IDX 8 13 33 14 9 15 31 16 32 17 10 18 30 19 11 20 29 21 4 22
REMARK SMILES IDX 2 23 3 24 37 25 36 26 1 27 17 28 18 29 19 30 20 33 21 34
REMARK SMILES IDX 26 35 22 36 25 37 23 38 24 39
REMARK H PARENT 19 31 19 32
ROOT
ATOM      1  C   UNL     1      -8.936   1.168 -13.797  1.00  0.00    +0.225 A 
ATOM      2  N   UNL     1      -8.321   2.342 -13.591  1.00  0.00    -0.221 NA
ATOM      3  C   UNL     1      -7.791   2.973 -14.661  1.00  0.00    +0.122 A 
ATOM      4  C   UNL     1      -7.824   2.493 -15.956  1.00  0.00    +0.013 A 
ATOM      5  C   UNL     1      -8.499   1.296 -16.062  1.00  0.00    +0.122 A 
ATOM      6  N   UNL     1      -9.040   0.626 -15.020  1.00  0.00    -0.221 NA
ENDROOT
BRANCH   1   7
ATOM      7  N   UNL     1      -9.516   0.506 -12.710  1.00  0.00    -0.337 N 
ATOM      8  C   UNL     1     -14.735  -1.795  -8.553  1.00  0.00    +0.005 A 
ATOM      9  C   UNL     1     -13.638  -1.259  -9.275  1.00  0.00    +0.042 A 
ATOM     10  C   UNL     1     -14.633  -3.165  -8.625  1.00  0.00    +0.122 A 
ATOM     11  C   UNL     1     -12.917  -2.324  -9.789  1.00  0.00    +0.108 A 
ATOM     12  N   UNL     1     -13.512  -3.471  -9.347  1.00  0.00    -0.235 N 
ATOM     13  C   UNL     1     -11.724  -2.453 -10.586  1.00  0.00    +0.156 C 
ATOM     14  N   UNL     1     -13.053  -4.710  -9.566  1.00  0.00    -0.156 NA
ATOM     15  N   UNL     1     -11.018  -1.415 -11.179  1.00  0.00    -0.351 N 
ATOM     16  N   UNL     1     -11.274  -3.666 -10.764  1.00  0.00    -0.215 NA
ATOM     17  C   UNL     1     -11.956  -4.739 -10.252  1.00  0.00    +0.247 C 
ATOM     18  C   UNL     1      -9.541  -1.453 -11.190  1.00  0.00    +0.139 C 
ATOM     19  C   UNL     1     -11.566  -0.076 -11.422  1.00  0.00    +0.139 C 
ATOM     20  C   UNL     1      -8.963  -0.839 -12.479  1.00  0.00    +0.141 C 
ATOM     21  C   UNL     1     -10.985   0.558 -12.704  1.00  0.00    +0.141 C 
BRANCH   8  22
ATOM     22  C   UNL     1     -15.759  -1.025  -7.863  1.00  0.00    +0.021 A 
ATOM     23  N   UNL     1     -17.504  -0.383  -6.712  1.00  0.00    -0.275 N 
ATOM     24  C   UNL     1     -16.854  -1.490  -7.172  1.00  0.00    +0.117 A 
ATOM     25  N   UNL     1     -16.909   0.775  -7.058  1.00  0.00    -0.181 NA
ATOM     26  C   UNL     1     -15.842   0.378  -7.760  1.00  0.00    +0.143 A 
ATOM     27  C   UNL     1     -18.715  -0.350  -5.927  1.00  0.00    +0.173 C 
ENDBRANCH   8  22
ENDBRANCH   1   7
BRANCH   4  28
ATOM     28  C   UNL     1      -7.214   3.251 -17.127  1.00  0.00    +0.067 C 
ATOM     29  C   UNL     1      -5.902   3.992 -16.760  1.00  0.00    +0.038 C 
BRANCH  28  30
ATOM     30  N   UNL     1      -6.812   2.257 -18.135  1.00  0.00    -0.318 NA
ATOM     31  H   UNL     1      -6.483   1.410 -17.677  1.00  0.00    +0.120 HD
ATOM     32  H   UNL     1      -6.047   2.621 -18.699  1.00  0.00    +0.120 HD
ENDBRANCH  28  30
BRANCH  28  33
ATOM     33  C   UNL     1      -8.188   4.319 -17.689  1.00  0.00    -0.024 A 
ATOM     34  C   UNL     1      -7.725   5.240 -18.657  1.00  0.00    +0.009 A 
ATOM     35  C   UNL     1      -9.533   4.426 -17.277  1.00  0.00    +0.009 A 
ATOM     36  C   UNL     1      -8.567   6.219 -19.187  1.00  0.00    +0.039 A 
ATOM     37  C   UNL     1     -10.373   5.408 -17.811  1.00  0.00    +0.039 A 
ATOM     38  C   UNL     1      -9.884   6.294 -18.760  1.00  0.00    +0.123 A 
ATOM     39  F   UNL     1     -10.692   7.233 -19.268  1.00  0.00    -0.207 F 
ENDBRANCH  28  33
ENDBRANCH   4  28
TORSDOF 5
ENDMDL
MODEL 6
REMARK VINA RESULT:    -9.423      5.589      8.978
REMARK INTER + INTRA:         -12.696
REMARK INTER:                 -11.923
REMARK INTRA:                  -0.773
REMARK UNBOUND:                -0.794
REMARK SMILES Cn1cc(-c2cc3c(N4CCN(c5ncc([C@@](C)(N)c6ccc(F)cc6)cn5)CC4)ncnn3c2)cn1
REMARK SMILES IDX 13 1 14 2 15 3 16 4 27 5 28 6 12 7 5 8 6 9 35 10 7 11 34 12
REMARK SMILES IDX 8 13 33 14 9 15 31 16 32 17 10 18 30 19 11 20 29 21 4 22
REMARK SMILES IDX 2 23 3 24 37 25 36 26 1 27 17 28 18 29 19 30 20 33 21 34
REMARK SMILES IDX 26 35 22 36 25 37 23 38 24 39
REMARK H PARENT 19 31 19 32
ROOT
ATOM      1  C   UNL     1     -12.252   0.900 -11.857  1.00  0.00    +0.225 A 
ATOM      2  N   UNL     1     -11.764   0.006 -10.984  1.00  0.00    -0.221 NA
ATOM      3  C   UNL     1     -12.502  -0.273  -9.887  1.00  0.00    +0.122 A 
ATOM      4  C   UNL     1     -13.721   0.303  -9.590  1.00  0.00    +0.013 A 
ATOM      5  C   UNL     1     -14.143   1.185 -10.561  1.00  0.00    +0.122 A 
ATOM      6  N   UNL     1     -13.436   1.500 -11.670  1.00  0.00    -0.221 NA
ENDROOT
BRANCH   1   7
ATOM      7  N   UNL     1     -11.520   1.188 -13.013  1.00  0.00    -0.337 N 
ATOM      8  C   UNL     1      -8.296   5.249 -17.802  1.00  0.00    +0.005 A 
ATOM      9  C   UNL     1      -9.031   4.389 -16.945  1.00  0.00    +0.042 A 
ATOM     10  C   UNL     1      -6.979   4.856 -17.733  1.00  0.00    +0.122 A 
ATOM     11  C   UNL     1      -8.129   3.516 -16.358  1.00  0.00    +0.108 A 
ATOM     12  N   UNL     1      -6.897   3.788 -16.882  1.00  0.00    -0.235 N 
ATOM     13  C   UNL     1      -8.233   2.426 -15.423  1.00  0.00    +0.156 C 
ATOM     14  N   UNL     1      -5.780   3.097 -16.621  1.00  0.00    -0.156 NA
ATOM     15  N   UNL     1      -9.377   2.040 -14.737  1.00  0.00    -0.351 N 
ATOM     16  N   UNL     1      -7.141   1.744 -15.204  1.00  0.00    -0.215 NA
ATOM     17  C   UNL     1      -5.966   2.108 -15.807  1.00  0.00    +0.247 C 
ATOM     18  C   UNL     1      -9.661   0.603 -14.545  1.00  0.00    +0.139 C 
ATOM     19  C   UNL     1     -10.555   2.895 -14.549  1.00  0.00    +0.139 C 
ATOM     20  C   UNL     1     -10.337   0.329 -13.189  1.00  0.00    +0.141 C 
ATOM     21  C   UNL     1     -11.253   2.621 -13.198  1.00  0.00    +0.141 C 
BRANCH   8  22
ATOM     22  C   UNL     1      -8.850   6.329 -18.604  1.00  0.00    +0.021 A 
ATOM     23  N   UNL     1      -9.623   7.574 -20.228  1.00  0.00    -0.275 N 
ATOM     24  C   UNL     1      -9.114   6.339 -19.954  1.00  0.00    +0.117 A 
ATOM     25  N   UNL     1      -9.707   8.374 -19.147  1.00  0.00    -0.181 NA
ATOM     26  C   UNL     1      -9.235   7.609 -18.156  1.00  0.00    +0.143 A 
ATOM     27  C   UNL     1     -10.055   8.071 -21.512  1.00  0.00    +0.173 C 
ENDBRANCH   8  22
ENDBRANCH   1   7
BRANCH   4  28
ATOM     28  C   UNL     1     -14.513  -0.055  -8.340  1.00  0.00    +0.067 C 
ATOM     29  C   UNL     1     -15.521   1.045  -7.918  1.00  0.00    +0.038 C 
BRANCH  28  30
ATOM     30  N   UNL     1     -15.350  -1.221  -8.667  1.00  0.00    -0.318 NA
ATOM     31  H   UNL     1     -15.138  -1.990  -8.036  1.00  0.00    +0.120 HD
ATOM     32  H   UNL     1     -15.156  -1.537  -9.615  1.00  0.00    +0.120 HD
ENDBRANCH  28  30
BRANCH  28  33
ATOM     33  C   UNL     1     -13.585  -0.302  -7.124  1.00  0.00    -0.024 A 
ATOM     34  C   UNL     1     -13.464  -1.609  -6.598  1.00  0.00    +0.009 A 
ATOM     35  C   UNL     1     -12.846   0.724  -6.499  1.00  0.00    +0.009 A 
ATOM     36  C   UNL     1     -12.642  -1.876  -5.501  1.00  0.00    +0.039 A 
ATOM     37  C   UNL     1     -12.023   0.452  -5.401  1.00  0.00    +0.039 A 
ATOM     38  C   UNL     1     -11.928  -0.843  -4.913  1.00  0.00    +0.123 A 
ATOM     39  F   UNL     1     -11.140  -1.098  -3.861  1.00  0.00    -0.207 F 
ENDBRANCH  28  33
ENDBRANCH   4  28
TORSDOF 5
ENDMDL
MODEL 7
REMARK VINA RESULT:    -9.159      3.680     12.038
REMARK INTER + INTRA:         -12.362
REMARK INTER:                 -11.639
REMARK INTRA:                  -0.723
REMARK UNBOUND:                -0.794
REMARK SMILES Cn1cc(-c2cc3c(N4CCN(c5ncc([C@@](C)(N)c6ccc(F)cc6)cn5)CC4)ncnn3c2)cn1
REMARK SMILES IDX 13 1 14 2 15 3 16 4 27 5 28 6 12 7 5 8 6 9 35 10 7 11 34 12
REMARK SMILES IDX 8 13 33 14 9 15 31 16 32 17 10 18 30 19 11 20 29 21 4 22
REMARK SMILES IDX 2 23 3 24 37 25 36 26 1 27 17 28 18 29 19 30 20 33 21 34
REMARK SMILES IDX 26 35 22 36 25 37 23 38 24 39
REMARK H PARENT 19 31 19 32
ROOT
ATOM      1  C   UNL     1      -7.536   3.176 -16.450  1.00  0.00    +0.225 A 
ATOM      2  N   UNL     1      -7.184   4.211 -17.228  1.00  0.00    -0.221 NA
ATOM      3  C   UNL     1      -8.108   5.167 -17.462  1.00  0.00    +0.122 A 
ATOM      4  C   UNL     1      -9.398   5.155 -16.968  1.00  0.00    +0.013 A 
ATOM      5  C   UNL     1      -9.649   4.066 -16.163  1.00  0.00    +0.122 A 
ATOM      6  N   UNL     1      -8.758   3.082 -15.906  1.00  0.00    -0.221 NA
ENDROOT
BRANCH   1   7
ATOM      7  N   UNL     1      -6.591   2.185 -16.170  1.00  0.00    -0.337 N 
ATOM      8  C   UNL     1      -3.912  -4.341 -15.943  1.00  0.00    +0.005 A 
ATOM      9  C   UNL     1      -4.443  -3.029 -15.845  1.00  0.00    +0.042 A 
ATOM     10  C   UNL     1      -2.781  -4.260 -16.723  1.00  0.00    +0.122 A 
ATOM     11  C   UNL     1      -3.633  -2.194 -16.596  1.00  0.00    +0.108 A 
ATOM     12  N   UNL     1      -2.606  -2.952 -17.084  1.00  0.00    -0.235 N 
ATOM     13  C   UNL     1      -3.624  -0.785 -16.892  1.00  0.00    +0.156 C 
ATOM     14  N   UNL     1      -1.570  -2.481 -17.790  1.00  0.00    -0.156 NA
ATOM     15  N   UNL     1      -4.606   0.132 -16.544  1.00  0.00    -0.351 N 
ATOM     16  N   UNL     1      -2.591  -0.339 -17.555  1.00  0.00    -0.215 NA
ATOM     17  C   UNL     1      -1.613  -1.202 -17.976  1.00  0.00    +0.247 C 
ATOM     18  C   UNL     1      -4.214   1.484 -16.096  1.00  0.00    +0.139 C 
ATOM     19  C   UNL     1      -5.977  -0.229 -16.168  1.00  0.00    +0.139 C 
ATOM     20  C   UNL     1      -5.219   2.555 -16.558  1.00  0.00    +0.141 C 
ATOM     21  C   UNL     1      -6.996   0.843 -16.612  1.00  0.00    +0.141 C 
BRANCH   8  22
ATOM     22  C   UNL     1      -4.465  -5.534 -15.319  1.00  0.00    +0.021 A 
ATOM     23  N   UNL     1      -4.987  -7.149 -13.940  1.00  0.00    -0.275 N 
ATOM     24  C   UNL     1      -4.250  -6.007 -14.045  1.00  0.00    +0.117 A 
ATOM     25  N   UNL     1      -5.669  -7.456 -15.060  1.00  0.00    -0.181 NA
ATOM     26  C   UNL     1      -5.348  -6.466 -15.900  1.00  0.00    +0.143 A 
ATOM     27  C   UNL     1      -5.092  -8.012 -12.788  1.00  0.00    +0.173 C 
ENDBRANCH   8  22
ENDBRANCH   1   7
BRANCH   4  28
ATOM     28  C   UNL     1     -10.397   6.266 -17.261  1.00  0.00    +0.067 C 
ATOM     29  C   UNL     1     -11.867   5.772 -17.304  1.00  0.00    +0.038 C 
BRANCH  28  30
ATOM     30  N   UNL     1     -10.354   7.208 -16.130  1.00  0.00    -0.318 NA
ATOM     31  H   UNL     1      -9.393   7.334 -15.819  1.00  0.00    +0.120 HD
ATOM     32  H   UNL     1     -10.887   6.839 -15.346  1.00  0.00    +0.120 HD
ENDBRANCH  28  30
BRANCH  28  33
ATOM     33  C   UNL     1     -10.115   6.948 -18.624  1.00  0.00    -0.024 A 
ATOM     34  C   UNL     1     -10.428   6.264 -19.821  1.00  0.00    +0.009 A 
ATOM     35  C   UNL     1      -9.548   8.235 -18.737  1.00  0.00    +0.009 A 
ATOM     36  C   UNL     1     -10.187   6.840 -21.070  1.00  0.00    +0.039 A 
ATOM     37  C   UNL     1      -9.309   8.809 -19.990  1.00  0.00    +0.039 A 
ATOM     38  C   UNL     1      -9.631   8.107 -21.143  1.00  0.00    +0.123 A 
ATOM     39  F   UNL     1      -9.399   8.661 -22.340  1.00  0.00    -0.207 F 
ENDBRANCH  28  33
ENDBRANCH   4  28
TORSDOF 5
ENDMDL
MODEL 8
REMARK VINA RESULT:    -9.089      6.434     10.808
REMARK INTER + INTRA:         -12.274
REMARK INTER:                 -11.570
REMARK INTRA:                  -0.704
REMARK UNBOUND:                -0.794
REMARK SMILES Cn1cc(-c2cc3c(N4CCN(c5ncc([C@@](C)(N)c6ccc(F)cc6)cn5)CC4)ncnn3c2)cn1
REMARK SMILES IDX 13 1 14 2 15 3 16 4 27 5 28 6 12 7 5 8 6 9 35 10 7 11 34 12
REMARK SMILES IDX 8 13 33 14 9 15 31 16 32 17 10 18 30 19 11 20 29 21 4 22
REMARK SMILES IDX 2 23 3 24 37 25 36 26 1 27 17 28 18 29 19 30 20 33 21 34
REMARK SMILES IDX 26 35 22 36 25 37 23 38 24 39
REMARK H PARENT 19 31 19 32
ROOT
ATOM      1  C   UNL     1      -8.765   0.126 -13.357  1.00  0.00    +0.225 A 
ATOM      2  N   UNL     1      -7.933   1.173 -13.251  1.00  0.00    -0.221 NA
ATOM      3  C   UNL     1      -7.434   1.700 -14.391  1.00  0.00    +0.122 A 
ATOM      4  C   UNL     1      -7.707   1.233 -15.661  1.00  0.00    +0.013 A 
ATOM      5  C   UNL     1      -8.590   0.175 -15.660  1.00  0.00    +0.122 A 
ATOM      6  N   UNL     1      -9.109  -0.389 -14.547  1.00  0.00    -0.221 NA
ENDROOT
BRANCH   1   7
ATOM      7  N   UNL     1      -9.316  -0.423 -12.195  1.00  0.00    -0.337 N 
ATOM      8  C   UNL     1     -14.433  -2.554  -7.827  1.00  0.00    +0.005 A 
ATOM      9  C   UNL     1     -13.366  -2.033  -8.602  1.00  0.00    +0.042 A 
ATOM     10  C   UNL     1     -14.214  -3.907  -7.698  1.00  0.00    +0.122 A 
ATOM     11  C   UNL     1     -12.545  -3.093  -8.947  1.00  0.00    +0.108 A 
ATOM     12  N   UNL     1     -13.053  -4.214  -8.353  1.00  0.00    -0.235 N 
ATOM     13  C   UNL     1     -11.324  -3.230  -9.699  1.00  0.00    +0.156 C 
ATOM     14  N   UNL     1     -12.486  -5.427  -8.385  1.00  0.00    -0.156 NA
ATOM     15  N   UNL     1     -10.692  -2.230 -10.425  1.00  0.00    -0.351 N 
ATOM     16  N   UNL     1     -10.770  -4.413  -9.694  1.00  0.00    -0.215 NA
ATOM     17  C   UNL     1     -11.373  -5.457  -9.043  1.00  0.00    +0.247 C 
ATOM     18  C   UNL     1      -9.217  -2.140 -10.409  1.00  0.00    +0.139 C 
ATOM     19  C   UNL     1     -11.344  -0.992 -10.866  1.00  0.00    +0.139 C 
ATOM     20  C   UNL     1      -8.658  -1.668 -11.764  1.00  0.00    +0.141 C 
ATOM     21  C   UNL     1     -10.784  -0.498 -12.218  1.00  0.00    +0.141 C 
BRANCH   8  22
ATOM     22  C   UNL     1     -15.536  -1.786  -7.269  1.00  0.00    +0.021 A 
ATOM     23  N   UNL     1     -17.503  -1.039  -6.672  1.00  0.00    -0.275 N 
ATOM     24  C   UNL     1     -16.884  -2.047  -7.350  1.00  0.00    +0.117 A 
ATOM     25  N   UNL     1     -16.650  -0.134  -6.154  1.00  0.00    -0.181 NA
ATOM     26  C   UNL     1     -15.449  -0.595  -6.520  1.00  0.00    +0.143 A 
ATOM     27  C   UNL     1     -18.922  -0.869  -6.473  1.00  0.00    +0.173 C 
ENDBRANCH   8  22
ENDBRANCH   1   7
BRANCH   4  28
ATOM     28  C   UNL     1      -7.120   1.871 -16.912  1.00  0.00    +0.067 C 
ATOM     29  C   UNL     1      -5.627   2.261 -16.758  1.00  0.00    +0.038 C 
BRANCH  28  30
ATOM     30  N   UNL     1      -7.131   0.852 -17.974  1.00  0.00    -0.318 NA
ATOM     31  H   UNL     1      -7.902   0.205 -17.828  1.00  0.00    +0.120 HD
ATOM     32  H   UNL     1      -6.267   0.315 -17.953  1.00  0.00    +0.120 HD
ENDBRANCH  28  30
BRANCH  28  33
ATOM     33  C   UNL     1      -7.881   3.163 -17.309  1.00  0.00    -0.024 A 
ATOM     34  C   UNL     1      -7.217   4.153 -18.069  1.00  0.00    +0.009 A 
ATOM     35  C   UNL     1      -9.219   3.410 -16.942  1.00  0.00    +0.009 A 
ATOM     36  C   UNL     1      -7.863   5.333 -18.445  1.00  0.00    +0.039 A 
ATOM     37  C   UNL     1      -9.864   4.592 -17.321  1.00  0.00    +0.039 A 
ATOM     38  C   UNL     1      -9.181   5.541 -18.069  1.00  0.00    +0.123 A 
ATOM     39  F   UNL     1      -9.802   6.671 -18.428  1.00  0.00    -0.207 F 
ENDBRANCH  28  33
ENDBRANCH   4  28
TORSDOF 5
ENDMDL
MODEL 9
REMARK VINA RESULT:    -9.063      1.954      2.801
REMARK INTER + INTRA:         -12.241
REMARK INTER:                 -11.585
REMARK INTRA:                  -0.656
REMARK UNBOUND:                -0.794
REMARK SMILES Cn1cc(-c2cc3c(N4CCN(c5ncc([C@@](C)(N)c6ccc(F)cc6)cn5)CC4)ncnn3c2)cn1
REMARK SMILES IDX 13 1 14 2 15 3 16 4 27 5 28 6 12 7 5 8 6 9 35 10 7 11 34 12
REMARK SMILES IDX 8 13 33 14 9 15 31 16 32 17 10 18 30 19 11 20 29 21 4 22
REMARK SMILES IDX 2 23 3 24 37 25 36 26 1 27 17 28 18 29 19 30 20 33 21 34
REMARK SMILES IDX 26 35 22 36 25 37 23 38 24 39
REMARK H PARENT 19 31 19 32
ROOT
ATOM      1  C   UNL     1      -5.837  -0.996 -15.008  1.00  0.00    +0.225 A 
ATOM      2  N   UNL     1      -6.533  -2.069 -15.413  1.00  0.00    -0.221 NA
ATOM      3  C   UNL     1      -5.890  -3.256 -15.462  1.00  0.00    +0.122 A 
ATOM      4  C   UNL     1      -4.562  -3.447 -15.138  1.00  0.00    +0.013 A 
ATOM      5  C   UNL     1      -3.946  -2.291 -14.711  1.00  0.00    +0.122 A 
ATOM      6  N   UNL     1      -4.546  -1.081 -14.652  1.00  0.00    -0.221 NA
ENDROOT
BRANCH   1   7
ATOM      7  N   UNL     1      -6.484   0.241 -14.923  1.00  0.00    -0.337 N 
ATOM      8  C   UNL     1     -10.318   5.721 -17.177  1.00  0.00    +0.005 A 
ATOM      9  C   UNL     1      -9.439   4.713 -16.704  1.00  0.00    +0.042 A 
ATOM     10  C   UNL     1     -11.422   5.710 -16.356  1.00  0.00    +0.122 A 
ATOM     11  C   UNL     1     -10.052   4.098 -15.625  1.00  0.00    +0.108 A 
ATOM     12  N   UNL     1     -11.234   4.746 -15.404  1.00  0.00    -0.235 N 
ATOM     13  C   UNL     1      -9.694   3.033 -14.724  1.00  0.00    +0.156 C 
ATOM     14  N   UNL     1     -12.073   4.493 -14.390  1.00  0.00    -0.156 NA
ATOM     15  N   UNL     1      -8.575   2.218 -14.822  1.00  0.00    -0.351 N 
ATOM     16  N   UNL     1     -10.508   2.821 -13.725  1.00  0.00    -0.215 NA
ATOM     17  C   UNL     1     -11.659   3.554 -13.602  1.00  0.00    +0.247 C 
ATOM     18  C   UNL     1      -7.844   1.834 -13.597  1.00  0.00    +0.139 C 
ATOM     19  C   UNL     1      -7.786   2.041 -16.047  1.00  0.00    +0.139 C 
ATOM     20  C   UNL     1      -7.277   0.405 -13.693  1.00  0.00    +0.141 C 
ATOM     21  C   UNL     1      -7.198   0.617 -16.151  1.00  0.00    +0.141 C 
BRANCH   8  22
ATOM     22  C   UNL     1     -10.074   6.601 -18.310  1.00  0.00    +0.021 A 
ATOM     23  N   UNL     1      -9.941   7.497 -20.301  1.00  0.00    -0.275 N 
ATOM     24  C   UNL     1     -10.360   6.382 -19.637  1.00  0.00    +0.117 A 
ATOM     25  N   UNL     1      -9.399   8.431 -19.496  1.00  0.00    -0.181 NA
ATOM     26  C   UNL     1      -9.483   7.881 -18.280  1.00  0.00    +0.143 A 
ATOM     27  C   UNL     1     -10.027   7.747 -21.719  1.00  0.00    +0.173 C 
ENDBRANCH   8  22
ENDBRANCH   1   7
BRANCH   4  28
ATOM     28  C   UNL     1      -3.891  -4.812 -15.207  1.00  0.00    +0.067 C 
ATOM     29  C   UNL     1      -4.211  -5.588 -16.511  1.00  0.00    +0.038 C 
BRANCH  28  30
ATOM     30  N   UNL     1      -2.437  -4.587 -15.255  1.00  0.00    -0.318 NA
ATOM     31  H   UNL     1      -2.145  -4.398 -16.211  1.00  0.00    +0.120 HD
ATOM     32  H   UNL     1      -1.943  -5.419 -14.939  1.00  0.00    +0.120 HD
ENDBRANCH  28  30
BRANCH  28  33
ATOM     33  C   UNL     1      -4.320  -5.724 -14.028  1.00  0.00    -0.024 A 
ATOM     34  C   UNL     1      -4.703  -5.136 -12.800  1.00  0.00    +0.009 A 
ATOM     35  C   UNL     1      -4.345  -7.131 -14.114  1.00  0.00    +0.009 A 
ATOM     36  C   UNL     1      -5.093  -5.919 -11.712  1.00  0.00    +0.039 A 
ATOM     37  C   UNL     1      -4.738  -7.912 -13.022  1.00  0.00    +0.039 A 
ATOM     38  C   UNL     1      -5.108  -7.300 -11.833  1.00  0.00    +0.123 A 
ATOM     39  F   UNL     1      -5.482  -8.052 -10.790  1.00  0.00    -0.207 F 
ENDBRANCH  28  33
ENDBRANCH   4  28
TORSDOF 5
ENDMDL
MODEL 10
REMARK VINA RESULT:    -8.837      7.154     10.758
REMARK INTER + INTRA:         -11.955
REMARK INTER:                 -11.171
REMARK INTRA:                  -0.784
REMARK UNBOUND:                -0.794
REMARK SMILES Cn1cc(-c2cc3c(N4CCN(c5ncc([C@@](C)(N)c6ccc(F)cc6)cn5)CC4)ncnn3c2)cn1
REMARK SMILES IDX 13 1 14 2 15 3 16 4 27 5 28 6 12 7 5 8 6 9 35 10 7 11 34 12
REMARK SMILES IDX 8 13 33 14 9 15 31 16 32 17 10 18 30 19 11 20 29 21 4 22
REMARK SMILES IDX 2 23 3 24 37 25 36 26 1 27 17 28 18 29 19 30 20 33 21 34
REMARK SMILES IDX 26 35 22 36 25 37 23 38 24 39
REMARK H PARENT 19 31 19 32
ROOT
ATOM      1  C   UNL     1     -13.093  -0.517  -9.927  1.00  0.00    +0.225 A 
ATOM      2  N   UNL     1     -12.772   0.087  -8.774  1.00  0.00    -0.221 NA
ATOM      3  C   UNL     1     -13.510  -0.205  -7.680  1.00  0.00    +0.122 A 
ATOM      4  C   UNL     1     -14.582  -1.075  -7.663  1.00  0.00    +0.013 A 
ATOM      5  C   UNL     1     -14.812  -1.661  -8.888  1.00  0.00    +0.122 A 
ATOM      6  N   UNL     1     -14.105  -1.394 -10.010  1.00  0.00    -0.221 NA
ENDROOT
BRANCH   1   7
ATOM      7  N   UNL     1     -12.330  -0.252 -11.068  1.00  0.00    -0.337 N 
ATOM      8  C   UNL     1      -9.086   3.715 -15.921  1.00  0.00    +0.005 A 
ATOM      9  C   UNL     1      -9.819   2.865 -15.053  1.00  0.00    +0.042 A 
ATOM     10  C   UNL     1      -7.758   3.379 -15.787  1.00  0.00    +0.122 A 
ATOM     11  C   UNL     1      -8.907   2.057 -14.393  1.00  0.00    +0.108 A 
ATOM     12  N   UNL     1      -7.668   2.354 -14.885  1.00  0.00    -0.235 N 
ATOM     13  C   UNL     1      -9.004   1.007 -13.413  1.00  0.00    +0.156 C 
ATOM     14  N   UNL     1      -6.536   1.721 -14.552  1.00  0.00    -0.156 NA
ATOM     15  N   UNL     1     -10.157   0.607 -12.752  1.00  0.00    -0.351 N 
ATOM     16  N   UNL     1      -7.896   0.380 -13.123  1.00  0.00    -0.215 NA
ATOM     17  C   UNL     1      -6.714   0.763 -13.699  1.00  0.00    +0.247 C 
ATOM     18  C   UNL     1     -10.393  -0.831 -12.503  1.00  0.00    +0.139 C 
ATOM     19  C   UNL     1     -11.374   1.421 -12.646  1.00  0.00    +0.139 C 
ATOM     20  C   UNL     1     -11.109  -1.070 -11.161  1.00  0.00    +0.141 C 
ATOM     21  C   UNL     1     -12.111   1.181 -11.310  1.00  0.00    +0.141 C 
BRANCH   8  22
ATOM     22  C   UNL     1      -9.650   4.734 -16.793  1.00  0.00    +0.021 A 
ATOM     23  N   UNL     1     -10.076   6.105 -18.443  1.00  0.00    -0.275 N 
ATOM     24  C   UNL     1      -9.224   5.118 -18.043  1.00  0.00    +0.117 A 
ATOM     25  N   UNL     1     -11.030   6.393 -17.537  1.00  0.00    -0.181 NA
ATOM     26  C   UNL     1     -10.768   5.552 -16.531  1.00  0.00    +0.143 A 
ATOM     27  C   UNL     1     -10.042   6.829 -19.691  1.00  0.00    +0.173 C 
ENDBRANCH   8  22
ENDBRANCH   1   7
BRANCH   4  28
ATOM     28  C   UNL     1     -15.375  -1.372  -6.397  1.00  0.00    +0.067 C 
ATOM     29  C   UNL     1     -15.443  -2.883  -6.058  1.00  0.00    +0.038 C 
BRANCH  28  30
ATOM     30  N   UNL     1     -14.647  -0.769  -5.269  1.00  0.00    -0.318 NA
ATOM     31  H   UNL     1     -14.489   0.221  -5.445  1.00  0.00    +0.120 HD
ATOM     32  H   UNL     1     -13.738  -1.213  -5.161  1.00  0.00    +0.120 HD
ENDBRANCH  28  30
BRANCH  28  33
ATOM     33  C   UNL     1     -16.838  -0.872  -6.506  1.00  0.00    -0.024 A 
ATOM     34  C   UNL     1     -17.882  -1.659  -5.969  1.00  0.00    +0.009 A 
ATOM     35  C   UNL     1     -17.191   0.344  -7.127  1.00  0.00    +0.009 A 
ATOM     36  C   UNL     1     -19.215  -1.248  -6.048  1.00  0.00    +0.039 A 
ATOM     37  C   UNL     1     -18.526   0.753  -7.204  1.00  0.00    +0.039 A 
ATOM     38  C   UNL     1     -19.525  -0.045  -6.664  1.00  0.00    +0.123 A 
ATOM     39  F   UNL     1     -20.802   0.350  -6.740  1.00  0.00    -0.207 F 
ENDBRANCH  28  33
ENDBRANCH   4  28
TORSDOF 5
ENDMDL
