MODEL 1
REMARK VINA RESULT:    -6.884      0.000      0.000
REMARK INTER + INTRA:         -10.503
REMARK INTER:                 -10.506
REMARK INTRA:                   0.003
REMARK UNBOUND:                 0.003
REMARK SMILES COC(=O)c1ccc2c(c1)NC(=O)/C2=C(\Nc1ccc(N(C)C(=O)CN2CCN(C)CC2)cc1)c1ccccc1
REMARK SMILES IDX 17 1 18 2 19 3 20 4 33 5 34 6 16 7 15 9 5 10 6 11 10 12 7 13
REMARK SMILES IDX 9 14 8 15 11 16 14 17 12 18 13 19 3 21 4 22 2 23 1 24 35 25
REMARK SMILES IDX 36 26 40 27 37 28 39 29 38 30 21 31 22 32 23 33 24 34 25 35
REMARK SMILES IDX 26 36 27 37 32 38 28 39 31 40 29 41 30 42
REMARK H PARENT 16 8 11 20
ROOT
ATOM      1  C   UNL     1      19.187  -5.331  13.725  1.00  0.00    +0.039 A 
ATOM      2  C   UNL     1      18.857  -6.563  13.145  1.00  0.00    +0.028 A 
ATOM      3  C   UNL     1      17.542  -6.882  12.766  1.00  0.00    +0.028 A 
ATOM      4  C   UNL     1      16.488  -5.984  12.953  1.00  0.00    +0.043 A 
ATOM      5  C   UNL     1      16.826  -4.741  13.512  1.00  0.00    +0.028 A 
ATOM      6  C   UNL     1      18.145  -4.425  13.889  1.00  0.00    +0.028 A 
ENDROOT
BRANCH   1   7
ATOM      7  N   UNL     1      20.539  -5.095  14.026  1.00  0.00    -0.354 N 
ATOM      8  H   UNL     1      21.006  -5.938  14.377  1.00  0.00    +0.167 HD
BRANCH   7   9
ATOM      9  C   UNL     1      21.370  -3.977  14.046  1.00  0.00    +0.059 C 
ATOM     10  C   UNL     1      24.699  -0.570  11.500  1.00  0.00    +0.062 A 
ATOM     11  C   UNL     1      24.213  -0.370  12.811  1.00  0.00    +0.016 A 
ATOM     12  C   UNL     1      24.301  -1.698  10.773  1.00  0.00    +0.042 A 
ATOM     13  C   UNL     1      23.339  -1.290  13.409  1.00  0.00    +0.012 A 
ATOM     14  C   UNL     1      23.439  -2.587  11.390  1.00  0.00    +0.050 A 
ATOM     15  C   UNL     1      22.961  -2.416  12.696  1.00  0.00    +0.013 A 
ATOM     16  N   UNL     1      22.915  -3.740  10.818  1.00  0.00    -0.321 N 
ATOM     17  C   UNL     1      22.079  -3.570  12.963  1.00  0.00    +0.073 C 
ATOM     18  C   UNL     1      22.062  -4.388  11.689  1.00  0.00    +0.258 C 
ATOM     19  O   UNL     1      21.426  -5.404  11.471  1.00  0.00    -0.269 OA
ATOM     20  H   UNL     1      23.091  -4.070   9.881  1.00  0.00    +0.170 HD
BRANCH  10  21
ATOM     21  C   UNL     1      25.626   0.389  10.841  1.00  0.00    +0.337 C 
ATOM     22  O   UNL     1      26.736   0.078  10.438  1.00  0.00    -0.246 OA
BRANCH  21  23
ATOM     23  O   UNL     1      25.066   1.620  10.758  1.00  0.00    -0.465 OA
ATOM     24  C   UNL     1      26.006   2.671  10.524  1.00  0.00    +0.282 C 
ENDBRANCH  21  23
ENDBRANCH  10  21
BRANCH   9  25
ATOM     25  C   UNL     1      21.425  -3.151  15.268  1.00  0.00    -0.001 A 
ATOM     26  C   UNL     1      21.422  -3.754  16.536  1.00  0.00    +0.010 A 
ATOM     27  C   UNL     1      21.491  -1.754  15.173  1.00  0.00    +0.010 A 
ATOM     28  C   UNL     1      21.488  -2.971  17.690  1.00  0.00    +0.001 A 
ATOM     29  C   UNL     1      21.557  -0.973  16.329  1.00  0.00    +0.001 A 
ATOM     30  C   UNL     1      21.557  -1.582  17.585  1.00  0.00    +0.000 A 
ENDBRANCH   9  25
ENDBRANCH   7   9
ENDBRANCH   1   7
BRANCH   4  31
ATOM     31  N   UNL     1      15.134  -6.284  12.542  1.00  0.00    -0.314 N 
ATOM     32  C   UNL     1      14.264  -5.155  12.206  1.00  0.00    +0.153 C 
BRANCH  31  33
ATOM     33  C   UNL     1      14.618  -7.599  12.563  1.00  0.00    +0.240 C 
ATOM     34  O   UNL     1      14.490  -8.301  11.557  1.00  0.00    -0.273 OA
BRANCH  33  35
ATOM     35  C   UNL     1      14.206  -8.129  13.958  1.00  0.00    +0.185 C 
BRANCH  35  36
ATOM     36  N   UNL     1      15.272  -7.960  14.965  1.00  0.00    -0.292 NA
ATOM     37  C   UNL     1      14.718  -7.558  16.272  1.00  0.00    +0.100 C 
ATOM     38  C   UNL     1      16.121  -9.149  15.114  1.00  0.00    +0.100 C 
ATOM     39  C   UNL     1      15.636  -7.867  17.485  1.00  0.00    +0.099 C 
ATOM     40  C   UNL     1      17.306  -8.914  16.092  1.00  0.00    +0.099 C 
ATOM     41  N   UNL     1      17.077  -7.951  17.193  1.00  0.00    -0.304 NA
ATOM     42  C   UNL     1      17.612  -6.632  16.844  1.00  0.00    +0.105 C 
ENDBRANCH  35  36
ENDBRANCH  33  35
ENDBRANCH  31  33
ENDBRANCH   4  31
TORSDOF 9
ENDMDL
MODEL 2
REMARK VINA RESULT:    -5.138      1.776      3.112
REMARK INTER + INTRA:          -7.839
REMARK INTER:                  -6.525
REMARK INTRA:                  -1.314
REMARK UNBOUND:                 0.003
REMARK SMILES COC(=O)c1ccc2c(c1)NC(=O)/C2=C(\Nc1ccc(N(C)C(=O)CN2CCN(C)CC2)cc1)c1ccccc1
REMARK SMILES IDX 17 1 18 2 19 3 20 4 33 5 34 6 16 7 15 9 5 10 6 11 10 12 7 13
REMARK SMILES IDX 9 14 8 15 11 16 14 17 12 18 13 19 3 21 4 22 2 23 1 24 35 25
REMARK SMILES IDX 36 26 40 27 37 28 39 29 38 30 21 31 22 32 23 33 24 34 25 35
REMARK SMILES IDX 26 36 27 37 32 38 28 39 31 40 29 41 30 42
REMARK H PARENT 16 8 11 20
ROOT
ATOM      1  C   UNL     1      19.115  -5.407  16.096  1.00  0.00    +0.039 A 
ATOM      2  C   UNL     1      18.654  -6.544  16.772  1.00  0.00    +0.028 A 
ATOM      3  C   UNL     1      17.394  -7.108  16.513  1.00  0.00    +0.028 A 
ATOM      4  C   UNL     1      16.527  -6.560  15.564  1.00  0.00    +0.043 A 
ATOM      5  C   UNL     1      17.002  -5.436  14.870  1.00  0.00    +0.028 A 
ATOM      6  C   UNL     1      18.266  -4.874  15.132  1.00  0.00    +0.028 A 
ENDROOT
BRANCH   1   7
ATOM      7  N   UNL     1      20.408  -4.950  16.398  1.00  0.00    -0.354 N 
ATOM      8  H   UNL     1      20.953  -5.652  16.910  1.00  0.00    +0.167 HD
BRANCH   7   9
ATOM      9  C   UNL     1      21.096  -3.747  16.248  1.00  0.00    +0.059 C 
ATOM     10  C   UNL     1      23.652  -0.173  13.108  1.00  0.00    +0.062 A 
ATOM     11  C   UNL     1      23.311   0.062  14.458  1.00  0.00    +0.016 A 
ATOM     12  C   UNL     1      23.305  -1.387  12.502  1.00  0.00    +0.042 A 
ATOM     13  C   UNL     1      22.634  -0.907  15.214  1.00  0.00    +0.012 A 
ATOM     14  C   UNL     1      22.639  -2.321  13.273  1.00  0.00    +0.050 A 
ATOM     15  C   UNL     1      22.308  -2.115  14.619  1.00  0.00    +0.013 A 
ATOM     16  N   UNL     1      22.191  -3.562  12.838  1.00  0.00    -0.321 N 
ATOM     17  C   UNL     1      21.612  -3.340  15.061  1.00  0.00    +0.073 C 
ATOM     18  C   UNL     1      21.535  -4.240  13.846  1.00  0.00    +0.258 C 
ATOM     19  O   UNL     1      21.003  -5.333  13.769  1.00  0.00    -0.269 OA
ATOM     20  H   UNL     1      22.288  -3.934  11.905  1.00  0.00    +0.170 HD
BRANCH  10  21
ATOM     21  C   UNL     1      24.368   0.836  12.282  1.00  0.00    +0.337 C 
ATOM     22  O   UNL     1      23.950   1.968  12.094  1.00  0.00    -0.246 OA
BRANCH  21  23
ATOM     23  O   UNL     1      25.519   0.321  11.785  1.00  0.00    -0.465 OA
ATOM     24  C   UNL     1      26.595   0.292  12.724  1.00  0.00    +0.282 C 
ENDBRANCH  21  23
ENDBRANCH  10  21
BRANCH   9  25
ATOM     25  C   UNL     1      21.201  -2.838  17.406  1.00  0.00    -0.001 A 
ATOM     26  C   UNL     1      20.161  -1.945  17.708  1.00  0.00    +0.010 A 
ATOM     27  C   UNL     1      22.341  -2.865  18.222  1.00  0.00    +0.010 A 
ATOM     28  C   UNL     1      20.258  -1.096  18.812  1.00  0.00    +0.001 A 
ATOM     29  C   UNL     1      22.435  -2.014  19.326  1.00  0.00    +0.001 A 
ATOM     30  C   UNL     1      21.395  -1.132  19.620  1.00  0.00    +0.000 A 
ENDBRANCH   9  25
ENDBRANCH   7   9
ENDBRANCH   1   7
BRANCH   4  31
ATOM     31  N   UNL     1      15.239  -7.145  15.263  1.00  0.00    -0.314 N 
ATOM     32  C   UNL     1      14.401  -7.551  16.392  1.00  0.00    +0.153 C 
BRANCH  31  33
ATOM     33  C   UNL     1      14.833  -7.424  13.938  1.00  0.00    +0.240 C 
ATOM     34  O   UNL     1      14.197  -6.635  13.236  1.00  0.00    -0.273 OA
BRANCH  33  35
ATOM     35  C   UNL     1      15.240  -8.817  13.398  1.00  0.00    +0.185 C 
BRANCH  35  36
ATOM     36  N   UNL     1      16.548  -8.800  12.714  1.00  0.00    -0.292 NA
ATOM     37  C   UNL     1      16.774  -7.519  12.019  1.00  0.00    +0.100 C 
ATOM     38  C   UNL     1      17.672  -9.100  13.611  1.00  0.00    +0.100 C 
ATOM     39  C   UNL     1      18.265  -7.191  11.739  1.00  0.00    +0.099 C 
ATOM     40  C   UNL     1      19.026  -9.192  12.854  1.00  0.00    +0.099 C 
ATOM     41  N   UNL     1      19.169  -8.350  11.644  1.00  0.00    -0.304 NA
ATOM     42  C   UNL     1      18.887  -9.129  10.437  1.00  0.00    +0.105 C 
ENDBRANCH  35  36
ENDBRANCH  33  35
ENDBRANCH  31  33
ENDBRANCH   4  31
TORSDOF 9
ENDMDL
MODEL 3
REMARK VINA RESULT:    -4.407      3.665      5.896
REMARK INTER + INTRA:          -6.724
REMARK INTER:                  -6.335
REMARK INTRA:                  -0.388
REMARK UNBOUND:                 0.003
REMARK SMILES COC(=O)c1ccc2c(c1)NC(=O)/C2=C(\Nc1ccc(N(C)C(=O)CN2CCN(C)CC2)cc1)c1ccccc1
REMARK SMILES IDX 17 1 18 2 19 3 20 4 33 5 34 6 16 7 15 9 5 10 6 11 10 12 7 13
REMARK SMILES IDX 9 14 8 15 11 16 14 17 12 18 13 19 3 21 4 22 2 23 1 24 35 25
REMARK SMILES IDX 36 26 40 27 37 28 39 29 38 30 21 31 22 32 23 33 24 34 25 35
REMARK SMILES IDX 26 36 27 37 32 38 28 39 31 40 29 41 30 42
REMARK H PARENT 16 8 11 20
ROOT
ATOM      1  C   UNL     1      18.694  -4.637  14.755  1.00  0.00    +0.039 A 
ATOM      2  C   UNL     1      18.705  -4.489  13.362  1.00  0.00    +0.028 A 
ATOM      3  C   UNL     1      17.522  -4.453  12.606  1.00  0.00    +0.028 A 
ATOM      4  C   UNL     1      16.265  -4.567  13.206  1.00  0.00    +0.043 A 
ATOM      5  C   UNL     1      16.257  -4.690  14.604  1.00  0.00    +0.028 A 
ATOM      6  C   UNL     1      17.445  -4.725  15.358  1.00  0.00    +0.028 A 
ENDROOT
BRANCH   1   7
ATOM      7  N   UNL     1      19.931  -4.615  15.422  1.00  0.00    -0.354 N 
ATOM      8  H   UNL     1      20.355  -5.548  15.471  1.00  0.00    +0.167 HD
BRANCH   7   9
ATOM      9  C   UNL     1      20.673  -3.655  16.106  1.00  0.00    +0.059 C 
ATOM     10  C   UNL     1      22.380  -1.486  20.748  1.00  0.00    +0.062 A 
ATOM     11  C   UNL     1      22.875  -1.123  19.476  1.00  0.00    +0.016 A 
ATOM     12  C   UNL     1      21.400  -2.480  20.858  1.00  0.00    +0.042 A 
ATOM     13  C   UNL     1      22.395  -1.737  18.309  1.00  0.00    +0.012 A 
ATOM     14  C   UNL     1      20.947  -3.066  19.690  1.00  0.00    +0.050 A 
ATOM     15  C   UNL     1      21.413  -2.707  18.418  1.00  0.00    +0.013 A 
ATOM     16  N   UNL     1      20.005  -4.084  19.603  1.00  0.00    -0.321 N 
ATOM     17  C   UNL     1      20.684  -3.563  17.459  1.00  0.00    +0.073 C 
ATOM     18  C   UNL     1      19.799  -4.466  18.293  1.00  0.00    +0.258 C 
ATOM     19  O   UNL     1      19.062  -5.351  17.895  1.00  0.00    -0.269 OA
ATOM     20  H   UNL     1      19.540  -4.528  20.380  1.00  0.00    +0.170 HD
BRANCH  10  21
ATOM     21  C   UNL     1      22.869  -0.853  22.002  1.00  0.00    +0.337 C 
ATOM     22  O   UNL     1      22.234  -0.015  22.622  1.00  0.00    -0.246 OA
BRANCH  21  23
ATOM     23  O   UNL     1      24.090  -1.336  22.340  1.00  0.00    -0.465 OA
ATOM     24  C   UNL     1      25.118  -0.344  22.371  1.00  0.00    +0.282 C 
ENDBRANCH  21  23
ENDBRANCH  10  21
BRANCH   9  25
ATOM     25  C   UNL     1      21.546  -2.747  15.336  1.00  0.00    -0.001 A 
ATOM     26  C   UNL     1      21.600  -1.378  15.645  1.00  0.00    +0.010 A 
ATOM     27  C   UNL     1      22.339  -3.247  14.293  1.00  0.00    +0.010 A 
ATOM     28  C   UNL     1      22.438  -0.525  14.924  1.00  0.00    +0.001 A 
ATOM     29  C   UNL     1      23.176  -2.391  13.574  1.00  0.00    +0.001 A 
ATOM     30  C   UNL     1      23.225  -1.033  13.890  1.00  0.00    +0.000 A 
ENDBRANCH   9  25
ENDBRANCH   7   9
ENDBRANCH   1   7
BRANCH   4  31
ATOM     31  N   UNL     1      15.036  -4.502  12.446  1.00  0.00    -0.314 N 
ATOM     32  C   UNL     1      14.197  -3.314  12.617  1.00  0.00    +0.153 C 
BRANCH  31  33
ATOM     33  C   UNL     1      14.589  -5.580  11.648  1.00  0.00    +0.240 C 
ATOM     34  O   UNL     1      14.266  -5.468  10.464  1.00  0.00    -0.273 OA
BRANCH  33  35
ATOM     35  C   UNL     1      14.523  -6.952  12.362  1.00  0.00    +0.185 C 
BRANCH  35  36
ATOM     36  N   UNL     1      15.854  -7.571  12.525  1.00  0.00    -0.292 NA
ATOM     37  C   UNL     1      16.044  -8.084  13.894  1.00  0.00    +0.100 C 
ATOM     38  C   UNL     1      16.123  -8.627  11.541  1.00  0.00    +0.100 C 
ATOM     39  C   UNL     1      17.131  -9.185  14.026  1.00  0.00    +0.099 C 
ATOM     40  C   UNL     1      17.569  -9.186  11.652  1.00  0.00    +0.099 C 
ATOM     41  N   UNL     1      18.186  -9.170  12.999  1.00  0.00    -0.304 NA
ATOM     42  C   UNL     1      19.045  -7.994  13.157  1.00  0.00    +0.105 C 
ENDBRANCH  35  36
ENDBRANCH  33  35
ENDBRANCH  31  33
ENDBRANCH   4  31
TORSDOF 9
ENDMDL
MODEL 4
REMARK VINA RESULT:    -3.580      5.849     11.043
REMARK INTER + INTRA:          -5.462
REMARK INTER:                  -4.799
REMARK INTRA:                  -0.662
REMARK UNBOUND:                 0.003
REMARK SMILES COC(=O)c1ccc2c(c1)NC(=O)/C2=C(\Nc1ccc(N(C)C(=O)CN2CCN(C)CC2)cc1)c1ccccc1
REMARK SMILES IDX 17 1 18 2 19 3 20 4 33 5 34 6 16 7 15 9 5 10 6 11 10 12 7 13
REMARK SMILES IDX 9 14 8 15 11 16 14 17 12 18 13 19 3 21 4 22 2 23 1 24 35 25
REMARK SMILES IDX 36 26 40 27 37 28 39 29 38 30 21 31 22 32 23 33 24 34 25 35
REMARK SMILES IDX 26 36 27 37 32 38 28 39 31 40 29 41 30 42
REMARK H PARENT 16 8 11 20
ROOT
ATOM      1  C   UNL     1      21.582  -2.932  19.293  1.00  0.00    +0.039 A 
ATOM      2  C   UNL     1      20.937  -2.532  20.469  1.00  0.00    +0.028 A 
ATOM      3  C   UNL     1      21.565  -1.717  21.426  1.00  0.00    +0.028 A 
ATOM      4  C   UNL     1      22.876  -1.264  21.255  1.00  0.00    +0.043 A 
ATOM      5  C   UNL     1      23.511  -1.646  20.063  1.00  0.00    +0.028 A 
ATOM      6  C   UNL     1      22.877  -2.461  19.107  1.00  0.00    +0.028 A 
ENDROOT
BRANCH   1   7
ATOM      7  N   UNL     1      20.850  -3.709  18.380  1.00  0.00    -0.354 N 
ATOM      8  H   UNL     1      20.523  -4.586  18.801  1.00  0.00    +0.167 HD
BRANCH   7   9
ATOM      9  C   UNL     1      20.537  -3.618  17.025  1.00  0.00    +0.059 C 
ATOM     10  C   UNL     1      17.280  -4.795  12.881  1.00  0.00    +0.062 A 
ATOM     11  C   UNL     1      18.353  -3.880  12.809  1.00  0.00    +0.016 A 
ATOM     12  C   UNL     1      16.996  -5.443  14.090  1.00  0.00    +0.042 A 
ATOM     13  C   UNL     1      19.154  -3.611  13.930  1.00  0.00    +0.012 A 
ATOM     14  C   UNL     1      17.803  -5.157  15.176  1.00  0.00    +0.050 A 
ATOM     15  C   UNL     1      18.883  -4.266  15.119  1.00  0.00    +0.013 A 
ATOM     16  N   UNL     1      17.657  -5.677  16.455  1.00  0.00    -0.321 N 
ATOM     17  C   UNL     1      19.468  -4.247  16.475  1.00  0.00    +0.073 C 
ATOM     18  C   UNL     1      18.606  -5.164  17.317  1.00  0.00    +0.258 C 
ATOM     19  O   UNL     1      18.720  -5.400  18.506  1.00  0.00    -0.269 OA
ATOM     20  H   UNL     1      16.941  -6.322  16.755  1.00  0.00    +0.170 HD
BRANCH  10  21
ATOM     21  C   UNL     1      16.415  -5.100  11.710  1.00  0.00    +0.337 C 
ATOM     22  O   UNL     1      15.195  -5.053  11.748  1.00  0.00    -0.246 OA
BRANCH  21  23
ATOM     23  O   UNL     1      17.164  -5.428  10.630  1.00  0.00    -0.465 OA
ATOM     24  C   UNL     1      17.566  -6.799  10.596  1.00  0.00    +0.282 C 
ENDBRANCH  21  23
ENDBRANCH  10  21
BRANCH   9  25
ATOM     25  C   UNL     1      21.352  -2.740  16.163  1.00  0.00    -0.001 A 
ATOM     26  C   UNL     1      22.157  -3.285  15.150  1.00  0.00    +0.010 A 
ATOM     27  C   UNL     1      21.322  -1.350  16.343  1.00  0.00    +0.010 A 
ATOM     28  C   UNL     1      22.916  -2.450  14.327  1.00  0.00    +0.001 A 
ATOM     29  C   UNL     1      22.082  -0.518  15.518  1.00  0.00    +0.001 A 
ATOM     30  C   UNL     1      22.877  -1.068  14.511  1.00  0.00    +0.000 A 
ENDBRANCH   9  25
ENDBRANCH   7   9
ENDBRANCH   1   7
BRANCH   4  31
ATOM     31  N   UNL     1      23.527  -0.400  22.215  1.00  0.00    -0.314 N 
ATOM     32  C   UNL     1      22.699   0.180  23.274  1.00  0.00    +0.153 C 
BRANCH  31  33
ATOM     33  C   UNL     1      24.886  -0.030  22.091  1.00  0.00    +0.240 C 
ATOM     34  O   UNL     1      25.826  -0.750  22.432  1.00  0.00    -0.273 OA
BRANCH  33  35
ATOM     35  C   UNL     1      25.139   1.373  21.485  1.00  0.00    +0.185 C 
BRANCH  35  36
ATOM     36  N   UNL     1      25.824   2.280  22.425  1.00  0.00    -0.292 NA
ATOM     37  C   UNL     1      26.293   1.559  23.623  1.00  0.00    +0.100 C 
ATOM     38  C   UNL     1      26.933   3.021  21.809  1.00  0.00    +0.100 C 
ATOM     39  C   UNL     1      27.447   2.261  24.389  1.00  0.00    +0.099 C 
ATOM     40  C   UNL     1      27.567   4.056  22.779  1.00  0.00    +0.099 C 
ATOM     41  N   UNL     1      27.532   3.722  24.222  1.00  0.00    -0.304 NA
ATOM     42  C   UNL     1      26.402   4.384  24.877  1.00  0.00    +0.105 C 
ENDBRANCH  35  36
ENDBRANCH  33  35
ENDBRANCH  31  33
ENDBRANCH   4  31
TORSDOF 9
ENDMDL
MODEL 5
REMARK VINA RESULT:    -3.496      5.840     11.130
REMARK INTER + INTRA:          -5.333
REMARK INTER:                  -4.632
REMARK INTRA:                  -0.701
REMARK UNBOUND:                 0.003
REMARK SMILES COC(=O)c1ccc2c(c1)NC(=O)/C2=C(\Nc1ccc(N(C)C(=O)CN2CCN(C)CC2)cc1)c1ccccc1
REMARK SMILES IDX 17 1 18 2 19 3 20 4 33 5 34 6 16 7 15 9 5 10 6 11 10 12 7 13
REMARK SMILES IDX 9 14 8 15 11 16 14 17 12 18 13 19 3 21 4 22 2 23 1 24 35 25
REMARK SMILES IDX 36 26 40 27 37 28 39 29 38 30 21 31 22 32 23 33 24 34 25 35
REMARK SMILES IDX 26 36 27 37 32 38 28 39 31 40 29 41 30 42
REMARK H PARENT 16 8 11 20
ROOT
ATOM      1  C   UNL     1      21.630  -3.013  19.364  1.00  0.00    +0.039 A 
ATOM      2  C   UNL     1      20.935  -2.438  20.436  1.00  0.00    +0.028 A 
ATOM      3  C   UNL     1      21.566  -1.603  21.373  1.00  0.00    +0.028 A 
ATOM      4  C   UNL     1      22.928  -1.304  21.287  1.00  0.00    +0.043 A 
ATOM      5  C   UNL     1      23.616  -1.861  20.198  1.00  0.00    +0.028 A 
ATOM      6  C   UNL     1      22.980  -2.697  19.261  1.00  0.00    +0.028 A 
ENDROOT
BRANCH   1   7
ATOM      7  N   UNL     1      20.896  -3.796  18.458  1.00  0.00    -0.354 N 
ATOM      8  H   UNL     1      20.626  -4.699  18.863  1.00  0.00    +0.167 HD
BRANCH   7   9
ATOM      9  C   UNL     1      20.526  -3.680  17.119  1.00  0.00    +0.059 C 
ATOM     10  C   UNL     1      17.114  -4.817  13.090  1.00  0.00    +0.062 A 
ATOM     11  C   UNL     1      18.170  -3.885  12.993  1.00  0.00    +0.016 A 
ATOM     12  C   UNL     1      16.891  -5.496  14.294  1.00  0.00    +0.042 A 
ATOM     13  C   UNL     1      19.013  -3.627  14.085  1.00  0.00    +0.012 A 
ATOM     14  C   UNL     1      17.738  -5.221  15.352  1.00  0.00    +0.050 A 
ATOM     15  C   UNL     1      18.802  -4.313  15.270  1.00  0.00    +0.013 A 
ATOM     16  N   UNL     1      17.654  -5.771  16.625  1.00  0.00    -0.321 N 
ATOM     17  C   UNL     1      19.443  -4.314  16.601  1.00  0.00    +0.073 C 
ATOM     18  C   UNL     1      18.631  -5.262  17.457  1.00  0.00    +0.258 C 
ATOM     19  O   UNL     1      18.798  -5.522  18.635  1.00  0.00    -0.269 OA
ATOM     20  H   UNL     1      16.960  -6.433  16.940  1.00  0.00    +0.170 HD
BRANCH  10  21
ATOM     21  C   UNL     1      16.205  -5.110  11.950  1.00  0.00    +0.337 C 
ATOM     22  O   UNL     1      16.586  -5.194  10.793  1.00  0.00    -0.246 OA
BRANCH  21  23
ATOM     23  O   UNL     1      14.928  -5.263  12.379  1.00  0.00    -0.465 OA
ATOM     24  C   UNL     1      14.257  -4.033  12.656  1.00  0.00    +0.282 C 
ENDBRANCH  21  23
ENDBRANCH  10  21
BRANCH   9  25
ATOM     25  C   UNL     1      21.291  -2.772  16.244  1.00  0.00    -0.001 A 
ATOM     26  C   UNL     1      21.289  -1.387  16.479  1.00  0.00    +0.010 A 
ATOM     27  C   UNL     1      22.037  -3.285  15.173  1.00  0.00    +0.010 A 
ATOM     28  C   UNL     1      22.026  -0.531  15.657  1.00  0.00    +0.001 A 
ATOM     29  C   UNL     1      22.772  -2.426  14.353  1.00  0.00    +0.001 A 
ATOM     30  C   UNL     1      22.766  -1.053  14.596  1.00  0.00    +0.000 A 
ENDBRANCH   9  25
ENDBRANCH   7   9
ENDBRANCH   1   7
BRANCH   4  31
ATOM     31  N   UNL     1      23.587  -0.422  22.226  1.00  0.00    -0.314 N 
ATOM     32  C   UNL     1      22.765   0.186  23.274  1.00  0.00    +0.153 C 
BRANCH  31  33
ATOM     33  C   UNL     1      24.947  -0.062  22.089  1.00  0.00    +0.240 C 
ATOM     34  O   UNL     1      25.885  -0.777  22.449  1.00  0.00    -0.273 OA
BRANCH  33  35
ATOM     35  C   UNL     1      25.206   1.322  21.445  1.00  0.00    +0.185 C 
BRANCH  35  36
ATOM     36  N   UNL     1      25.834   2.274  22.381  1.00  0.00    -0.292 NA
ATOM     37  C   UNL     1      26.242   1.608  23.632  1.00  0.00    +0.100 C 
ATOM     38  C   UNL     1      26.970   2.997  21.794  1.00  0.00    +0.100 C 
ATOM     39  C   UNL     1      27.350   2.350  24.428  1.00  0.00    +0.099 C 
ATOM     40  C   UNL     1      27.546   4.077  22.752  1.00  0.00    +0.099 C 
ATOM     41  N   UNL     1      27.435   3.804  24.203  1.00  0.00    -0.304 NA
ATOM     42  C   UNL     1      26.267   4.484  24.768  1.00  0.00    +0.105 C 
ENDBRANCH  35  36
ENDBRANCH  33  35
ENDBRANCH  31  33
ENDBRANCH   4  31
TORSDOF 9
ENDMDL
