MODEL 1
REMARK VINA RESULT:   -10.825      0.000      0.000
REMARK INTER + INTRA:         -13.919
REMARK INTER:                 -13.989
REMARK INTRA:                   0.070
REMARK UNBOUND:                 0.070
REMARK SMILES CNC(=O)c1ccccc1Sc1ccc2c(/C=C/c3ccccn3)n[nH]c2c1
REMARK SMILES IDX 11 1 10 2 5 3 6 4 7 5 9 6 8 7 3 8 2 9 4 10 1 11 12 13 13 14
REMARK SMILES IDX 28 15 14 16 27 17 15 18 26 19 16 20 25 21 17 23 18 24 19 25
REMARK SMILES IDX 20 26 24 27 21 28 23 29 22 30
REMARK H PARENT 2 12 26 22
ROOT
ATOM      1  S   UNL     1     -38.878 158.669  -1.283  1.00  0.00    -0.089 SA
ENDROOT
BRANCH   1   2
ATOM      2  C   UNL     1     -40.098 159.075  -0.033  1.00  0.00    +0.025 A 
ATOM      3  C   UNL     1     -39.952 158.807   1.342  1.00  0.00    +0.053 A 
ATOM      4  C   UNL     1     -40.944 159.232   2.244  1.00  0.00    +0.015 A 
ATOM      5  C   UNL     1     -42.088 159.886   1.788  1.00  0.00    +0.001 A 
ATOM      6  C   UNL     1     -41.262 159.728  -0.474  1.00  0.00    +0.016 A 
ATOM      7  C   UNL     1     -42.250 160.129   0.428  1.00  0.00    +0.001 A 
BRANCH   3   8
ATOM      8  C   UNL     1     -38.787 158.107   1.946  1.00  0.00    +0.252 C 
ATOM      9  N   UNL     1     -38.959 157.600   3.215  1.00  0.00    -0.355 N 
ATOM     10  O   UNL     1     -37.731 158.037   1.326  1.00  0.00    -0.269 OA
ATOM     11  C   UNL     1     -37.931 156.821   3.854  1.00  0.00    +0.143 C 
ATOM     12  H   UNL     1     -39.897 157.566   3.598  1.00  0.00    +0.163 HD
ENDBRANCH   3   8
ENDBRANCH   1   2
BRANCH   1  13
ATOM     13  C   UNL     1     -38.841 160.208  -2.193  1.00  0.00    +0.014 A 
ATOM     14  C   UNL     1     -38.789 160.203  -3.588  1.00  0.00    +0.016 A 
ATOM     15  C   UNL     1     -38.892 161.417  -1.486  1.00  0.00    +0.043 A 
ATOM     16  C   UNL     1     -38.758 161.404  -4.314  1.00  0.00    +0.014 A 
ATOM     17  C   UNL     1     -38.861 162.602  -2.233  1.00  0.00    +0.067 A 
ATOM     18  C   UNL     1     -38.780 162.632  -3.621  1.00  0.00    +0.027 A 
ATOM     19  N   UNL     1     -38.910 163.912  -1.850  1.00  0.00    -0.277 N 
ATOM     20  C   UNL     1     -38.760 164.022  -3.959  1.00  0.00    +0.093 A 
ATOM     21  N   UNL     1     -38.868 164.788  -2.863  1.00  0.00    -0.175 NA
ATOM     22  H   UNL     1     -38.981 164.278  -0.908  1.00  0.00    +0.190 HD
BRANCH  20  23
ATOM     23  C   UNL     1     -38.667 164.602  -5.266  1.00  0.00    +0.033 C 
ATOM     24  C   UNL     1     -38.108 164.036  -6.350  1.00  0.00    +0.030 C 
BRANCH  24  25
ATOM     25  C   UNL     1     -38.027 164.683  -7.666  1.00  0.00    +0.063 A 
ATOM     26  C   UNL     1     -38.120 163.917  -8.825  1.00  0.00    +0.028 A 
ATOM     27  N   UNL     1     -37.873 166.027  -7.697  1.00  0.00    -0.257 NA
ATOM     28  C   UNL     1     -38.047 164.555 -10.062  1.00  0.00    +0.004 A 
ATOM     29  C   UNL     1     -37.805 166.619  -8.909  1.00  0.00    +0.111 A 
ATOM     30  C   UNL     1     -37.886 165.933 -10.108  1.00  0.00    +0.020 A 
ENDBRANCH  24  25
ENDBRANCH  20  23
ENDBRANCH   1  13
TORSDOF 5
ENDMDL
MODEL 2
REMARK VINA RESULT:   -10.340      2.979     10.186
REMARK INTER + INTRA:         -13.293
REMARK INTER:                 -13.186
REMARK INTRA:                  -0.107
REMARK UNBOUND:                 0.070
REMARK SMILES CNC(=O)c1ccccc1Sc1ccc2c(/C=C/c3ccccn3)n[nH]c2c1
REMARK SMILES IDX 11 1 10 2 5 3 6 4 7 5 9 6 8 7 3 8 2 9 4 10 1 11 12 13 13 14
REMARK SMILES IDX 28 15 14 16 27 17 15 18 26 19 16 20 25 21 17 23 18 24 19 25
REMARK SMILES IDX 20 26 24 27 21 28 23 29 22 30
REMARK H PARENT 2 12 26 22
ROOT
ATOM      1  S   UNL     1     -39.370 160.694  -4.612  1.00  0.00    -0.089 SA
ENDROOT
BRANCH   1   2
ATOM      2  C   UNL     1     -38.740 162.364  -4.431  1.00  0.00    +0.025 A 
ATOM      3  C   UNL     1     -37.969 163.035  -5.399  1.00  0.00    +0.053 A 
ATOM      4  C   UNL     1     -37.585 164.370  -5.181  1.00  0.00    +0.015 A 
ATOM      5  C   UNL     1     -37.930 165.027  -4.001  1.00  0.00    +0.001 A 
ATOM      6  C   UNL     1     -39.072 163.039  -3.244  1.00  0.00    +0.016 A 
ATOM      7  C   UNL     1     -38.669 164.359  -3.029  1.00  0.00    +0.001 A 
BRANCH   3   8
ATOM      8  C   UNL     1     -37.528 162.439  -6.689  1.00  0.00    +0.252 C 
ATOM      9  N   UNL     1     -38.248 162.785  -7.810  1.00  0.00    -0.355 N 
ATOM     10  O   UNL     1     -36.585 161.655  -6.705  1.00  0.00    -0.269 OA
ATOM     11  C   UNL     1     -37.849 162.344  -9.121  1.00  0.00    +0.143 C 
ATOM     12  H   UNL     1     -38.913 163.548  -7.741  1.00  0.00    +0.163 HD
ENDBRANCH   3   8
ENDBRANCH   1   2
BRANCH   1  13
ATOM     13  C   UNL     1     -39.149 160.095  -2.942  1.00  0.00    +0.014 A 
ATOM     14  C   UNL     1     -38.251 159.059  -2.676  1.00  0.00    +0.016 A 
ATOM     15  C   UNL     1     -39.867 160.700  -1.901  1.00  0.00    +0.043 A 
ATOM     16  C   UNL     1     -38.069 158.578  -1.370  1.00  0.00    +0.014 A 
ATOM     17  C   UNL     1     -39.667 160.203  -0.607  1.00  0.00    +0.067 A 
ATOM     18  C   UNL     1     -38.804 159.153  -0.313  1.00  0.00    +0.027 A 
ATOM     19  N   UNL     1     -40.195 160.579   0.596  1.00  0.00    -0.277 N 
ATOM     20  C   UNL     1     -38.918 158.968   1.102  1.00  0.00    +0.093 A 
ATOM     21  N   UNL     1     -39.752 159.868   1.642  1.00  0.00    -0.175 NA
ATOM     22  H   UNL     1     -40.860 161.323   0.774  1.00  0.00    +0.190 HD
BRANCH  20  23
ATOM     23  C   UNL     1     -38.245 157.996   1.913  1.00  0.00    +0.033 C 
ATOM     24  C   UNL     1     -37.870 158.153   3.194  1.00  0.00    +0.030 C 
BRANCH  24  25
ATOM     25  C   UNL     1     -37.168 157.126   3.976  1.00  0.00    +0.063 A 
ATOM     26  C   UNL     1     -37.891 156.124   4.618  1.00  0.00    +0.028 A 
ATOM     27  N   UNL     1     -35.817 157.193   4.032  1.00  0.00    -0.257 NA
ATOM     28  C   UNL     1     -37.201 155.158   5.348  1.00  0.00    +0.004 A 
ATOM     29  C   UNL     1     -35.175 156.245   4.747  1.00  0.00    +0.111 A 
ATOM     30  C   UNL     1     -35.816 155.217   5.416  1.00  0.00    +0.020 A 
ENDBRANCH  24  25
ENDBRANCH  20  23
ENDBRANCH   1  13
TORSDOF 5
ENDMDL
MODEL 3
REMARK VINA RESULT:   -10.114      4.293     11.029
REMARK INTER + INTRA:         -13.000
REMARK INTER:                 -12.193
REMARK INTRA:                  -0.807
REMARK UNBOUND:                 0.070
REMARK SMILES CNC(=O)c1ccccc1Sc1ccc2c(/C=C/c3ccccn3)n[nH]c2c1
REMARK SMILES IDX 11 1 10 2 5 3 6 4 7 5 9 6 8 7 3 8 2 9 4 10 1 11 12 13 13 14
REMARK SMILES IDX 28 15 14 16 27 17 15 18 26 19 16 20 25 21 17 23 18 24 19 25
REMARK SMILES IDX 20 26 24 27 21 28 23 29 22 30
REMARK H PARENT 2 12 26 22
ROOT
ATOM      1  S   UNL     1     -38.234 164.009 -10.896  1.00  0.00    -0.089 SA
ENDROOT
BRANCH   1   2
ATOM      2  C   UNL     1     -36.566 164.616 -11.153  1.00  0.00    +0.025 A 
ATOM      3  C   UNL     1     -36.228 165.972 -11.325  1.00  0.00    +0.053 A 
ATOM      4  C   UNL     1     -34.877 166.342 -11.450  1.00  0.00    +0.015 A 
ATOM      5  C   UNL     1     -33.870 165.379 -11.441  1.00  0.00    +0.001 A 
ATOM      6  C   UNL     1     -35.537 163.658 -11.153  1.00  0.00    +0.016 A 
ATOM      7  C   UNL     1     -34.200 164.035 -11.298  1.00  0.00    +0.001 A 
BRANCH   3   8
ATOM      8  C   UNL     1     -37.210 167.088 -11.366  1.00  0.00    +0.252 C 
ATOM      9  N   UNL     1     -36.902 168.212 -10.633  1.00  0.00    -0.355 N 
ATOM     10  O   UNL     1     -38.249 166.961 -12.006  1.00  0.00    -0.269 OA
ATOM     11  C   UNL     1     -37.733 169.387 -10.679  1.00  0.00    +0.143 C 
ATOM     12  H   UNL     1     -35.965 168.300 -10.255  1.00  0.00    +0.163 HD
ENDBRANCH   3   8
ENDBRANCH   1   2
BRANCH   1  13
ATOM     13  C   UNL     1     -38.213 163.785  -9.122  1.00  0.00    +0.014 A 
ATOM     14  C   UNL     1     -38.172 162.503  -8.571  1.00  0.00    +0.016 A 
ATOM     15  C   UNL     1     -38.210 164.916  -8.293  1.00  0.00    +0.043 A 
ATOM     16  C   UNL     1     -38.157 162.313  -7.181  1.00  0.00    +0.014 A 
ATOM     17  C   UNL     1     -38.193 164.701  -6.909  1.00  0.00    +0.067 A 
ATOM     18  C   UNL     1     -38.183 163.437  -6.329  1.00  0.00    +0.027 A 
ATOM     19  N   UNL     1     -38.172 165.575  -5.860  1.00  0.00    -0.277 N 
ATOM     20  C   UNL     1     -38.183 163.679  -4.919  1.00  0.00    +0.093 A 
ATOM     21  N   UNL     1     -38.148 164.993  -4.654  1.00  0.00    -0.175 NA
ATOM     22  H   UNL     1     -38.164 166.588  -5.899  1.00  0.00    +0.190 HD
BRANCH  20  23
ATOM     23  C   UNL     1     -38.189 162.707  -3.866  1.00  0.00    +0.033 C 
ATOM     24  C   UNL     1     -39.144 161.788  -3.638  1.00  0.00    +0.030 C 
BRANCH  24  25
ATOM     25  C   UNL     1     -39.107 160.822  -2.532  1.00  0.00    +0.063 A 
ATOM     26  C   UNL     1     -38.565 159.555  -2.731  1.00  0.00    +0.028 A 
ATOM     27  N   UNL     1     -39.603 161.217  -1.336  1.00  0.00    -0.257 NA
ATOM     28  C   UNL     1     -38.536 158.659  -1.665  1.00  0.00    +0.004 A 
ATOM     29  C   UNL     1     -39.563 160.328  -0.320  1.00  0.00    +0.111 A 
ATOM     30  C   UNL     1     -39.044 159.050  -0.433  1.00  0.00    +0.020 A 
ENDBRANCH  24  25
ENDBRANCH  20  23
ENDBRANCH   1  13
TORSDOF 5
ENDMDL
MODEL 4
REMARK VINA RESULT:    -9.919      4.229     10.523
REMARK INTER + INTRA:         -12.748
REMARK INTER:                 -12.080
REMARK INTRA:                  -0.668
REMARK UNBOUND:                 0.070
REMARK SMILES CNC(=O)c1ccccc1Sc1ccc2c(/C=C/c3ccccn3)n[nH]c2c1
REMARK SMILES IDX 11 1 10 2 5 3 6 4 7 5 9 6 8 7 3 8 2 9 4 10 1 11 12 13 13 14
REMARK SMILES IDX 28 15 14 16 27 17 15 18 26 19 16 20 25 21 17 23 18 24 19 25
REMARK SMILES IDX 20 26 24 27 21 28 23 29 22 30
REMARK H PARENT 2 12 26 22
ROOT
ATOM      1  S   UNL     1     -38.223 165.132 -10.733  1.00  0.00    -0.089 SA
ENDROOT
BRANCH   1   2
ATOM      2  C   UNL     1     -36.494 164.895 -11.149  1.00  0.00    +0.025 A 
ATOM      3  C   UNL     1     -35.926 163.662 -11.523  1.00  0.00    +0.053 A 
ATOM      4  C   UNL     1     -34.571 163.605 -11.896  1.00  0.00    +0.015 A 
ATOM      5  C   UNL     1     -33.775 164.749 -11.866  1.00  0.00    +0.001 A 
ATOM      6  C   UNL     1     -35.674 166.036 -11.117  1.00  0.00    +0.016 A 
ATOM      7  C   UNL     1     -34.325 165.964 -11.471  1.00  0.00    +0.001 A 
BRANCH   3   8
ATOM      8  C   UNL     1     -36.667 162.373 -11.581  1.00  0.00    +0.252 C 
ATOM      9  N   UNL     1     -36.051 161.279 -11.017  1.00  0.00    -0.355 N 
ATOM     10  O   UNL     1     -37.755 162.323 -12.143  1.00  0.00    -0.269 OA
ATOM     11  C   UNL     1     -36.719 160.007 -10.930  1.00  0.00    +0.143 C 
ATOM     12  H   UNL     1     -35.228 161.430 -10.444  1.00  0.00    +0.163 HD
ENDBRANCH   3   8
ENDBRANCH   1   2
BRANCH   1  13
ATOM     13  C   UNL     1     -38.211 164.586  -9.030  1.00  0.00    +0.014 A 
ATOM     14  C   UNL     1     -38.186 163.224  -8.724  1.00  0.00    +0.016 A 
ATOM     15  C   UNL     1     -38.198 165.545  -8.008  1.00  0.00    +0.043 A 
ATOM     16  C   UNL     1     -38.178 162.782  -7.393  1.00  0.00    +0.014 A 
ATOM     17  C   UNL     1     -38.188 165.080  -6.687  1.00  0.00    +0.067 A 
ATOM     18  C   UNL     1     -38.194 163.730  -6.349  1.00  0.00    +0.027 A 
ATOM     19  N   UNL     1     -38.160 165.746  -5.495  1.00  0.00    -0.277 N 
ATOM     20  C   UNL     1     -38.196 163.709  -4.918  1.00  0.00    +0.093 A 
ATOM     21  N   UNL     1     -38.147 164.951  -4.416  1.00  0.00    -0.175 NA
ATOM     22  H   UNL     1     -38.140 166.748  -5.347  1.00  0.00    +0.190 HD
BRANCH  20  23
ATOM     23  C   UNL     1     -38.218 162.560  -4.062  1.00  0.00    +0.033 C 
ATOM     24  C   UNL     1     -39.295 162.055  -3.436  1.00  0.00    +0.030 C 
BRANCH  24  25
ATOM     25  C   UNL     1     -39.257 160.880  -2.555  1.00  0.00    +0.063 A 
ATOM     26  C   UNL     1     -38.594 159.725  -2.962  1.00  0.00    +0.028 A 
ATOM     27  N   UNL     1     -39.874 160.975  -1.353  1.00  0.00    -0.257 NA
ATOM     28  C   UNL     1     -38.567 158.626  -2.106  1.00  0.00    +0.004 A 
ATOM     29  C   UNL     1     -39.833 159.895  -0.545  1.00  0.00    +0.111 A 
ATOM     30  C   UNL     1     -39.199 158.709  -0.872  1.00  0.00    +0.020 A 
ENDBRANCH  24  25
ENDBRANCH  20  23
ENDBRANCH   1  13
TORSDOF 5
ENDMDL
MODEL 5
REMARK VINA RESULT:    -9.897      4.049     10.536
REMARK INTER + INTRA:         -12.720
REMARK INTER:                 -12.210
REMARK INTRA:                  -0.510
REMARK UNBOUND:                 0.070
REMARK SMILES CNC(=O)c1ccccc1Sc1ccc2c(/C=C/c3ccccn3)n[nH]c2c1
REMARK SMILES IDX 11 1 10 2 5 3 6 4 7 5 9 6 8 7 3 8 2 9 4 10 1 11 12 13 13 14
REMARK SMILES IDX 28 15 14 16 27 17 15 18 26 19 16 20 25 21 17 23 18 24 19 25
REMARK SMILES IDX 20 26 24 27 21 28 23 29 22 30
REMARK H PARENT 2 12 26 22
ROOT
ATOM      1  S   UNL     1     -37.882 165.204 -10.021  1.00  0.00    -0.089 SA
ENDROOT
BRANCH   1   2
ATOM      2  C   UNL     1     -37.482 163.688 -10.893  1.00  0.00    +0.025 A 
ATOM      3  C   UNL     1     -36.210 163.377 -11.410  1.00  0.00    +0.053 A 
ATOM      4  C   UNL     1     -35.991 162.127 -12.016  1.00  0.00    +0.015 A 
ATOM      5  C   UNL     1     -37.029 161.205 -12.142  1.00  0.00    +0.001 A 
ATOM      6  C   UNL     1     -38.518 162.749 -11.036  1.00  0.00    +0.016 A 
ATOM      7  C   UNL     1     -38.295 161.518 -11.658  1.00  0.00    +0.001 A 
BRANCH   3   8
ATOM      8  C   UNL     1     -35.030 164.281 -11.349  1.00  0.00    +0.252 C 
ATOM      9  N   UNL     1     -35.077 165.416 -12.126  1.00  0.00    -0.355 N 
ATOM     10  O   UNL     1     -34.066 163.975 -10.654  1.00  0.00    -0.269 OA
ATOM     11  C   UNL     1     -34.034 166.406 -12.069  1.00  0.00    +0.143 C 
ATOM     12  H   UNL     1     -35.961 165.672 -12.552  1.00  0.00    +0.163 HD
ENDBRANCH   3   8
ENDBRANCH   1   2
BRANCH   1  13
ATOM     13  C   UNL     1     -37.988 164.581  -8.348  1.00  0.00    +0.014 A 
ATOM     14  C   UNL     1     -37.818 163.219  -8.088  1.00  0.00    +0.016 A 
ATOM     15  C   UNL     1     -38.216 165.482  -7.299  1.00  0.00    +0.043 A 
ATOM     16  C   UNL     1     -37.901 162.717  -6.781  1.00  0.00    +0.014 A 
ATOM     17  C   UNL     1     -38.293 164.957  -6.003  1.00  0.00    +0.067 A 
ATOM     18  C   UNL     1     -38.158 163.603  -5.714  1.00  0.00    +0.027 A 
ATOM     19  N   UNL     1     -38.487 165.562  -4.793  1.00  0.00    -0.277 N 
ATOM     20  C   UNL     1     -38.318 163.511  -4.295  1.00  0.00    +0.093 A 
ATOM     21  N   UNL     1     -38.490 164.724  -3.748  1.00  0.00    -0.175 NA
ATOM     22  H   UNL     1     -38.616 166.551  -4.611  1.00  0.00    +0.190 HD
BRANCH  20  23
ATOM     23  C   UNL     1     -38.282 162.329  -3.487  1.00  0.00    +0.033 C 
ATOM     24  C   UNL     1     -39.327 161.768  -2.852  1.00  0.00    +0.030 C 
BRANCH  24  25
ATOM     25  C   UNL     1     -39.231 160.560  -2.022  1.00  0.00    +0.063 A 
ATOM     26  C   UNL     1     -38.368 159.530  -2.388  1.00  0.00    +0.028 A 
ATOM     27  N   UNL     1     -39.995 160.501  -0.906  1.00  0.00    -0.257 NA
ATOM     28  C   UNL     1     -38.291 158.397  -1.581  1.00  0.00    +0.004 A 
ATOM     29  C   UNL     1     -39.900 159.392  -0.143  1.00  0.00    +0.111 A 
ATOM     30  C   UNL     1     -39.071 158.322  -0.436  1.00  0.00    +0.020 A 
ENDBRANCH  24  25
ENDBRANCH  20  23
ENDBRANCH   1  13
TORSDOF 5
ENDMDL
MODEL 6
REMARK VINA RESULT:    -9.105      2.618      3.866
REMARK INTER + INTRA:         -11.696
REMARK INTER:                 -12.166
REMARK INTRA:                   0.470
REMARK UNBOUND:                 0.070
REMARK SMILES CNC(=O)c1ccccc1Sc1ccc2c(/C=C/c3ccccn3)n[nH]c2c1
REMARK SMILES IDX 11 1 10 2 5 3 6 4 7 5 9 6 8 7 3 8 2 9 4 10 1 11 12 13 13 14
REMARK SMILES IDX 28 15 14 16 27 17 15 18 26 19 16 20 25 21 17 23 18 24 19 25
REMARK SMILES IDX 20 26 24 27 21 28 23 29 22 30
REMARK H PARENT 2 12 26 22
ROOT
ATOM      1  S   UNL     1     -39.489 162.561  -1.802  1.00  0.00    -0.089 SA
ENDROOT
BRANCH   1   2
ATOM      2  C   UNL     1     -39.204 160.796  -1.654  1.00  0.00    +0.025 A 
ATOM      3  C   UNL     1     -40.018 159.916  -0.915  1.00  0.00    +0.053 A 
ATOM      4  C   UNL     1     -39.741 158.537  -0.925  1.00  0.00    +0.015 A 
ATOM      5  C   UNL     1     -38.648 158.035  -1.630  1.00  0.00    +0.001 A 
ATOM      6  C   UNL     1     -38.103 160.273  -2.352  1.00  0.00    +0.016 A 
ATOM      7  C   UNL     1     -37.825 158.904  -2.339  1.00  0.00    +0.001 A 
BRANCH   3   8
ATOM      8  C   UNL     1     -41.201 160.331  -0.114  1.00  0.00    +0.252 C 
ATOM      9  N   UNL     1     -41.570 159.502   0.921  1.00  0.00    -0.355 N 
ATOM     10  O   UNL     1     -41.812 161.352  -0.415  1.00  0.00    -0.269 OA
ATOM     11  C   UNL     1     -42.638 159.857   1.819  1.00  0.00    +0.143 C 
ATOM     12  H   UNL     1     -40.934 158.764   1.199  1.00  0.00    +0.163 HD
ENDBRANCH   3   8
ENDBRANCH   1   2
BRANCH   1  13
ATOM     13  C   UNL     1     -38.973 162.818  -3.495  1.00  0.00    +0.014 A 
ATOM     14  C   UNL     1     -38.495 164.064  -3.907  1.00  0.00    +0.016 A 
ATOM     15  C   UNL     1     -39.029 161.744  -4.394  1.00  0.00    +0.043 A 
ATOM     16  C   UNL     1     -38.089 164.279  -5.232  1.00  0.00    +0.014 A 
ATOM     17  C   UNL     1     -38.617 161.984  -5.711  1.00  0.00    +0.067 A 
ATOM     18  C   UNL     1     -38.164 163.220  -6.160  1.00  0.00    +0.027 A 
ATOM     19  N   UNL     1     -38.540 161.159  -6.797  1.00  0.00    -0.277 N 
ATOM     20  C   UNL     1     -37.868 163.022  -7.546  1.00  0.00    +0.093 A 
ATOM     21  N   UNL     1     -38.078 161.748  -7.908  1.00  0.00    -0.175 NA
ATOM     22  H   UNL     1     -38.780 160.176  -6.845  1.00  0.00    +0.190 HD
BRANCH  20  23
ATOM     23  C   UNL     1     -37.382 163.992  -8.483  1.00  0.00    +0.033 C 
ATOM     24  C   UNL     1     -37.992 165.140  -8.826  1.00  0.00    +0.030 C 
BRANCH  24  25
ATOM     25  C   UNL     1     -37.454 166.094  -9.806  1.00  0.00    +0.063 A 
ATOM     26  C   UNL     1     -36.382 165.730 -10.617  1.00  0.00    +0.028 A 
ATOM     27  N   UNL     1     -38.043 167.310  -9.888  1.00  0.00    -0.257 NA
ATOM     28  C   UNL     1     -35.894 166.650 -11.542  1.00  0.00    +0.004 A 
ATOM     29  C   UNL     1     -37.550 168.182 -10.793  1.00  0.00    +0.111 A 
ATOM     30  C   UNL     1     -36.487 167.902 -11.634  1.00  0.00    +0.020 A 
ENDBRANCH  24  25
ENDBRANCH  20  23
ENDBRANCH   1  13
TORSDOF 5
ENDMDL
MODEL 7
REMARK VINA RESULT:    -9.049      3.779     10.610
REMARK INTER + INTRA:         -11.624
REMARK INTER:                 -11.944
REMARK INTRA:                   0.320
REMARK UNBOUND:                 0.070
REMARK SMILES CNC(=O)c1ccccc1Sc1ccc2c(/C=C/c3ccccn3)n[nH]c2c1
REMARK SMILES IDX 11 1 10 2 5 3 6 4 7 5 9 6 8 7 3 8 2 9 4 10 1 11 12 13 13 14
REMARK SMILES IDX 28 15 14 16 27 17 15 18 26 19 16 20 25 21 17 23 18 24 19 25
REMARK SMILES IDX 20 26 24 27 21 28 23 29 22 30
REMARK H PARENT 2 12 26 22
ROOT
ATOM      1  S   UNL     1     -37.749 165.712  -7.109  1.00  0.00    -0.089 SA
ENDROOT
BRANCH   1   2
ATOM      2  C   UNL     1     -37.930 164.739  -8.605  1.00  0.00    +0.025 A 
ATOM      3  C   UNL     1     -37.667 165.217  -9.903  1.00  0.00    +0.053 A 
ATOM      4  C   UNL     1     -37.776 164.344 -11.001  1.00  0.00    +0.015 A 
ATOM      5  C   UNL     1     -38.174 163.020 -10.823  1.00  0.00    +0.001 A 
ATOM      6  C   UNL     1     -38.337 163.404  -8.445  1.00  0.00    +0.016 A 
ATOM      7  C   UNL     1     -38.460 162.551  -9.545  1.00  0.00    +0.001 A 
BRANCH   3   8
ATOM      8  C   UNL     1     -37.250 166.608 -10.223  1.00  0.00    +0.252 C 
ATOM      9  N   UNL     1     -35.952 166.783 -10.648  1.00  0.00    -0.355 N 
ATOM     10  O   UNL     1     -38.043 167.531 -10.069  1.00  0.00    -0.269 OA
ATOM     11  C   UNL     1     -35.473 168.072 -11.077  1.00  0.00    +0.143 C 
ATOM     12  H   UNL     1     -35.409 165.963 -10.892  1.00  0.00    +0.163 HD
ENDBRANCH   3   8
ENDBRANCH   1   2
BRANCH   1  13
ATOM     13  C   UNL     1     -38.180 164.482  -5.884  1.00  0.00    +0.014 A 
ATOM     14  C   UNL     1     -39.089 164.784  -4.868  1.00  0.00    +0.016 A 
ATOM     15  C   UNL     1     -37.615 163.203  -5.977  1.00  0.00    +0.043 A 
ATOM     16  C   UNL     1     -39.435 163.829  -3.900  1.00  0.00    +0.014 A 
ATOM     17  C   UNL     1     -37.977 162.266  -5.000  1.00  0.00    +0.067 A 
ATOM     18  C   UNL     1     -38.855 162.545  -3.958  1.00  0.00    +0.027 A 
ATOM     19  N   UNL     1     -37.618 160.960  -4.824  1.00  0.00    -0.277 N 
ATOM     20  C   UNL     1     -38.926 161.332  -3.202  1.00  0.00    +0.093 A 
ATOM     21  N   UNL     1     -38.184 160.367  -3.765  1.00  0.00    -0.175 NA
ATOM     22  H   UNL     1     -36.994 160.408  -5.402  1.00  0.00    +0.190 HD
BRANCH  20  23
ATOM     23  C   UNL     1     -39.685 161.088  -2.011  1.00  0.00    +0.033 C 
ATOM     24  C   UNL     1     -39.687 159.954  -1.288  1.00  0.00    +0.030 C 
BRANCH  24  25
ATOM     25  C   UNL     1     -40.498 159.752  -0.080  1.00  0.00    +0.063 A 
ATOM     26  C   UNL     1     -41.742 160.368   0.036  1.00  0.00    +0.028 A 
ATOM     27  N   UNL     1     -39.995 158.951   0.888  1.00  0.00    -0.257 NA
ATOM     28  C   UNL     1     -42.495 160.156   1.188  1.00  0.00    +0.004 A 
ATOM     29  C   UNL     1     -40.746 158.763   1.995  1.00  0.00    +0.111 A 
ATOM     30  C   UNL     1     -41.990 159.339   2.190  1.00  0.00    +0.020 A 
ENDBRANCH  24  25
ENDBRANCH  20  23
ENDBRANCH   1  13
TORSDOF 5
ENDMDL
MODEL 8
REMARK VINA RESULT:    -8.991      3.011      5.934
REMARK INTER + INTRA:         -11.549
REMARK INTER:                 -10.929
REMARK INTRA:                  -0.619
REMARK UNBOUND:                 0.070
REMARK SMILES CNC(=O)c1ccccc1Sc1ccc2c(/C=C/c3ccccn3)n[nH]c2c1
REMARK SMILES IDX 11 1 10 2 5 3 6 4 7 5 9 6 8 7 3 8 2 9 4 10 1 11 12 13 13 14
REMARK SMILES IDX 28 15 14 16 27 17 15 18 26 19 16 20 25 21 17 23 18 24 19 25
REMARK SMILES IDX 20 26 24 27 21 28 23 29 22 30
REMARK H PARENT 2 12 26 22
ROOT
ATOM      1  S   UNL     1     -37.951 156.113   3.666  1.00  0.00    -0.089 SA
ENDROOT
BRANCH   1   2
ATOM      2  C   UNL     1     -37.301 157.068   5.039  1.00  0.00    +0.025 A 
ATOM      3  C   UNL     1     -36.930 156.525   6.283  1.00  0.00    +0.053 A 
ATOM      4  C   UNL     1     -36.366 157.358   7.266  1.00  0.00    +0.015 A 
ATOM      5  C   UNL     1     -36.201 158.722   7.034  1.00  0.00    +0.001 A 
ATOM      6  C   UNL     1     -37.134 158.447   4.826  1.00  0.00    +0.016 A 
ATOM      7  C   UNL     1     -36.591 159.269   5.816  1.00  0.00    +0.001 A 
BRANCH   3   8
ATOM      8  C   UNL     1     -37.069 155.091   6.655  1.00  0.00    +0.252 C 
ATOM      9  N   UNL     1     -35.938 154.313   6.556  1.00  0.00    -0.355 N 
ATOM     10  O   UNL     1     -38.164 154.654   6.994  1.00  0.00    -0.269 OA
ATOM     11  C   UNL     1     -35.936 152.938   6.982  1.00  0.00    +0.143 C 
ATOM     12  H   UNL     1     -35.045 154.774   6.415  1.00  0.00    +0.163 HD
ENDBRANCH   3   8
ENDBRANCH   1   2
BRANCH   1  13
ATOM     13  C   UNL     1     -38.442 157.438   2.570  1.00  0.00    +0.014 A 
ATOM     14  C   UNL     1     -37.533 157.969   1.651  1.00  0.00    +0.016 A 
ATOM     15  C   UNL     1     -39.758 157.916   2.627  1.00  0.00    +0.043 A 
ATOM     16  C   UNL     1     -37.905 159.009   0.787  1.00  0.00    +0.014 A 
ATOM     17  C   UNL     1     -40.105 158.954   1.753  1.00  0.00    +0.067 A 
ATOM     18  C   UNL     1     -39.216 159.525   0.848  1.00  0.00    +0.027 A 
ATOM     19  N   UNL     1     -41.285 159.614   1.558  1.00  0.00    -0.277 N 
ATOM     20  C   UNL     1     -39.971 160.540   0.180  1.00  0.00    +0.093 A 
ATOM     21  N   UNL     1     -41.242 160.559   0.609  1.00  0.00    -0.175 NA
ATOM     22  H   UNL     1     -42.165 159.460   2.036  1.00  0.00    +0.190 HD
BRANCH  20  23
ATOM     23  C   UNL     1     -39.517 161.437  -0.841  1.00  0.00    +0.033 C 
ATOM     24  C   UNL     1     -39.642 161.260  -2.168  1.00  0.00    +0.030 C 
BRANCH  24  25
ATOM     25  C   UNL     1     -39.143 162.208  -3.174  1.00  0.00    +0.063 A 
ATOM     26  C   UNL     1     -38.781 161.754  -4.440  1.00  0.00    +0.028 A 
ATOM     27  N   UNL     1     -39.064 163.513  -2.823  1.00  0.00    -0.257 NA
ATOM     28  C   UNL     1     -38.317 162.674  -5.378  1.00  0.00    +0.004 A 
ATOM     29  C   UNL     1     -38.611 164.382  -3.751  1.00  0.00    +0.111 A 
ATOM     30  C   UNL     1     -38.228 164.015  -5.030  1.00  0.00    +0.020 A 
ENDBRANCH  24  25
ENDBRANCH  20  23
ENDBRANCH   1  13
TORSDOF 5
ENDMDL
MODEL 9
REMARK VINA RESULT:    -8.797      6.495     10.858
REMARK INTER + INTRA:         -11.299
REMARK INTER:                 -11.179
REMARK INTRA:                  -0.120
REMARK UNBOUND:                 0.070
REMARK SMILES CNC(=O)c1ccccc1Sc1ccc2c(/C=C/c3ccccn3)n[nH]c2c1
REMARK SMILES IDX 11 1 10 2 5 3 6 4 7 5 9 6 8 7 3 8 2 9 4 10 1 11 12 13 13 14
REMARK SMILES IDX 28 15 14 16 27 17 15 18 26 19 16 20 25 21 17 23 18 24 19 25
REMARK SMILES IDX 20 26 24 27 21 28 23 29 22 30
REMARK H PARENT 2 12 26 22
ROOT
ATOM      1  S   UNL     1     -35.521 151.830   6.161  1.00  0.00    -0.089 SA
ENDROOT
BRANCH   1   2
ATOM      2  C   UNL     1     -36.959 150.831   5.772  1.00  0.00    +0.025 A 
ATOM      3  C   UNL     1     -36.925 149.644   5.016  1.00  0.00    +0.053 A 
ATOM      4  C   UNL     1     -38.105 148.902   4.831  1.00  0.00    +0.015 A 
ATOM      5  C   UNL     1     -39.316 149.347   5.358  1.00  0.00    +0.001 A 
ATOM      6  C   UNL     1     -38.191 151.268   6.289  1.00  0.00    +0.016 A 
ATOM      7  C   UNL     1     -39.361 150.533   6.082  1.00  0.00    +0.001 A 
BRANCH   3   8
ATOM      8  C   UNL     1     -35.700 149.074   4.393  1.00  0.00    +0.252 C 
ATOM      9  N   UNL     1     -35.640 149.090   3.017  1.00  0.00    -0.355 N 
ATOM     10  O   UNL     1     -34.824 148.593   5.103  1.00  0.00    -0.269 OA
ATOM     11  C   UNL     1     -34.461 148.655   2.315  1.00  0.00    +0.143 C 
ATOM     12  H   UNL     1     -36.328 149.635   2.510  1.00  0.00    +0.163 HD
ENDBRANCH   3   8
ENDBRANCH   1   2
BRANCH   1  13
ATOM     13  C   UNL     1     -36.052 153.408   5.507  1.00  0.00    +0.014 A 
ATOM     14  C   UNL     1     -37.338 153.559   4.984  1.00  0.00    +0.016 A 
ATOM     15  C   UNL     1     -35.169 154.496   5.553  1.00  0.00    +0.043 A 
ATOM     16  C   UNL     1     -37.767 154.791   4.466  1.00  0.00    +0.014 A 
ATOM     17  C   UNL     1     -35.621 155.714   5.032  1.00  0.00    +0.067 A 
ATOM     18  C   UNL     1     -36.884 155.890   4.476  1.00  0.00    +0.027 A 
ATOM     19  N   UNL     1     -35.019 156.938   4.944  1.00  0.00    -0.277 N 
ATOM     20  C   UNL     1     -36.917 157.260   4.063  1.00  0.00    +0.093 A 
ATOM     21  N   UNL     1     -35.777 157.889   4.383  1.00  0.00    -0.175 NA
ATOM     22  H   UNL     1     -34.090 157.193   5.258  1.00  0.00    +0.190 HD
BRANCH  20  23
ATOM     23  C   UNL     1     -37.992 157.952   3.415  1.00  0.00    +0.033 C 
ATOM     24  C   UNL     1     -38.223 158.001   2.091  1.00  0.00    +0.030 C 
BRANCH  24  25
ATOM     25  C   UNL     1     -39.335 158.739   1.478  1.00  0.00    +0.063 A 
ATOM     26  C   UNL     1     -40.596 158.715   2.068  1.00  0.00    +0.028 A 
ATOM     27  N   UNL     1     -39.079 159.435   0.346  1.00  0.00    -0.257 NA
ATOM     28  C   UNL     1     -41.633 159.428   1.471  1.00  0.00    +0.004 A 
ATOM     29  C   UNL     1     -40.103 160.117  -0.212  1.00  0.00    +0.111 A 
ATOM     30  C   UNL     1     -41.386 160.144   0.308  1.00  0.00    +0.020 A 
ENDBRANCH  24  25
ENDBRANCH  20  23
ENDBRANCH   1  13
TORSDOF 5
ENDMDL
MODEL 10
REMARK VINA RESULT:    -8.684      6.954     11.735
REMARK INTER + INTRA:         -11.152
REMARK INTER:                 -10.786
REMARK INTRA:                  -0.366
REMARK UNBOUND:                 0.070
REMARK SMILES CNC(=O)c1ccccc1Sc1ccc2c(/C=C/c3ccccn3)n[nH]c2c1
REMARK SMILES IDX 11 1 10 2 5 3 6 4 7 5 9 6 8 7 3 8 2 9 4 10 1 11 12 13 13 14
REMARK SMILES IDX 28 15 14 16 27 17 15 18 26 19 16 20 25 21 17 23 18 24 19 25
REMARK SMILES IDX 20 26 24 27 21 28 23 29 22 30
REMARK H PARENT 2 12 26 22
ROOT
ATOM      1  S   UNL     1     -35.547 152.116   7.765  1.00  0.00    -0.089 SA
ENDROOT
BRANCH   1   2
ATOM      2  C   UNL     1     -36.112 150.724   6.784  1.00  0.00    +0.025 A 
ATOM      3  C   UNL     1     -36.002 149.376   7.175  1.00  0.00    +0.053 A 
ATOM      4  C   UNL     1     -36.542 148.367   6.357  1.00  0.00    +0.015 A 
ATOM      5  C   UNL     1     -37.156 148.684   5.147  1.00  0.00    +0.001 A 
ATOM      6  C   UNL     1     -36.728 151.024   5.557  1.00  0.00    +0.016 A 
ATOM      7  C   UNL     1     -37.244 150.012   4.743  1.00  0.00    +0.001 A 
BRANCH   3   8
ATOM      8  C   UNL     1     -35.359 148.911   8.434  1.00  0.00    +0.252 C 
ATOM      9  N   UNL     1     -34.103 148.357   8.320  1.00  0.00    -0.355 N 
ATOM     10  O   UNL     1     -35.965 149.003   9.496  1.00  0.00    -0.269 OA
ATOM     11  C   UNL     1     -33.351 147.965   9.483  1.00  0.00    +0.143 C 
ATOM     12  H   UNL     1     -33.611 148.453   7.439  1.00  0.00    +0.163 HD
ENDBRANCH   3   8
ENDBRANCH   1   2
BRANCH   1  13
ATOM     13  C   UNL     1     -36.075 153.467   6.718  1.00  0.00    +0.014 A 
ATOM     14  C   UNL     1     -37.434 153.717   6.517  1.00  0.00    +0.016 A 
ATOM     15  C   UNL     1     -35.105 154.288   6.127  1.00  0.00    +0.043 A 
ATOM     16  C   UNL     1     -37.861 154.772   5.698  1.00  0.00    +0.014 A 
ATOM     17  C   UNL     1     -35.556 155.336   5.315  1.00  0.00    +0.067 A 
ATOM     18  C   UNL     1     -36.901 155.593   5.070  1.00  0.00    +0.027 A 
ATOM     19  N   UNL     1     -34.878 156.299   4.623  1.00  0.00    -0.277 N 
ATOM     20  C   UNL     1     -36.907 156.723   4.192  1.00  0.00    +0.093 A 
ATOM     21  N   UNL     1     -35.660 157.156   3.954  1.00  0.00    -0.175 NA
ATOM     22  H   UNL     1     -33.874 156.433   4.574  1.00  0.00    +0.190 HD
BRANCH  20  23
ATOM     23  C   UNL     1     -38.045 157.381   3.623  1.00  0.00    +0.033 C 
ATOM     24  C   UNL     1     -38.127 157.899   2.385  1.00  0.00    +0.030 C 
BRANCH  24  25
ATOM     25  C   UNL     1     -39.318 158.579   1.856  1.00  0.00    +0.063 A 
ATOM     26  C   UNL     1     -40.555 158.394   2.468  1.00  0.00    +0.028 A 
ATOM     27  N   UNL     1     -39.157 159.381   0.778  1.00  0.00    -0.257 NA
ATOM     28  C   UNL     1     -41.668 159.054   1.952  1.00  0.00    +0.004 A 
ATOM     29  C   UNL     1     -40.252 160.008   0.298  1.00  0.00    +0.111 A 
ATOM     30  C   UNL     1     -41.517 159.878   0.844  1.00  0.00    +0.020 A 
ENDBRANCH  24  25
ENDBRANCH  20  23
ENDBRANCH   1  13
TORSDOF 5
ENDMDL
