REMARK SMILES CC1(COc2ccc3c(c2)ncn3-c2ccc3cccc(N4CCC(N)CC4)c3n2)COC1
REMARK SMILES IDX 5 1 6 2 7 3 8 4 9 5 10 6 11 7 12 8 13 9 4 10 3 11 2 12 31 13
REMARK SMILES IDX 33 14 32 15 1 16 14 17 15 18 30 19 16 20 29 21 17 22 21 23
REMARK SMILES IDX 18 24 20 25 19 26 22 27 23 28 28 29 24 30 27 31 25 32 26 33
REMARK H PARENT 26 34 26 35
ROOT
ATOM      1  C   UNL     1       3.981   0.787   0.744  1.00  0.00    +0.121 A 
ATOM      2  C   UNL     1       3.770  -0.339  -0.049  1.00  0.00    +0.049 A 
ATOM      3  C   UNL     1       2.493  -0.665  -0.536  1.00  0.00    +0.033 A 
ATOM      4  C   UNL     1       1.422   0.188  -0.220  1.00  0.00    +0.075 A 
ATOM      5  C   UNL     1       1.614   1.294   0.615  1.00  0.00    +0.093 A 
ATOM      6  C   UNL     1       2.899   1.603   1.087  1.00  0.00    +0.077 A 
ATOM      7  N   UNL     1       0.438   1.936   0.883  1.00  0.00    -0.236 NA
ATOM      8  C   UNL     1      -0.472   1.248   0.235  1.00  0.00    +0.206 A 
ATOM      9  N   UNL     1       0.059   0.210  -0.506  1.00  0.00    -0.283 N 
ENDROOT
BRANCH   1  10
ATOM     10  O   UNL     1       5.180   1.189   1.266  1.00  0.00    -0.493 OA
BRANCH  10  11
ATOM     11  C   UNL     1       6.343   0.449   0.890  1.00  0.00    +0.241 C 
BRANCH  11  12
ATOM     12  C   UNL     1       7.563   1.112   1.531  1.00  0.00    +0.048 C 
ATOM     13  C   UNL     1       8.823   0.230   1.466  1.00  0.00    +0.172 C 
ATOM     14  C   UNL     1       7.670   0.873   3.048  1.00  0.00    +0.172 C 
ATOM     15  O   UNL     1       8.644  -0.185   2.842  1.00  0.00    -0.380 OA
ATOM     16  C   UNL     1       7.783   2.548   1.077  1.00  0.00    +0.020 C 
ENDBRANCH  11  12
ENDBRANCH  10  11
ENDBRANCH   1  10
BRANCH   9  17
ATOM     17  C   UNL     1      -0.736  -0.610  -1.359  1.00  0.00    +0.139 A 
ATOM     18  C   UNL     1      -0.175  -1.417  -2.331  1.00  0.00    +0.048 A 
ATOM     19  N   UNL     1      -2.080  -0.527  -1.188  1.00  0.00    -0.228 NA
ATOM     20  C   UNL     1      -1.026  -2.182  -3.124  1.00  0.00    +0.014 A 
ATOM     21  C   UNL     1      -2.928  -1.267  -1.945  1.00  0.00    +0.096 A 
ATOM     22  C   UNL     1      -2.413  -2.121  -2.943  1.00  0.00    +0.002 A 
ATOM     23  C   UNL     1      -4.339  -1.193  -1.772  1.00  0.00    +0.063 A 
ATOM     24  C   UNL     1      -3.267  -2.885  -3.750  1.00  0.00    +0.010 A 
ATOM     25  C   UNL     1      -5.171  -1.968  -2.605  1.00  0.00    +0.028 A 
ATOM     26  C   UNL     1      -4.643  -2.807  -3.581  1.00  0.00    +0.003 A 
BRANCH  23  27
ATOM     27  N   UNL     1      -4.892  -0.341  -0.779  1.00  0.00    -0.370 N 
ATOM     28  C   UNL     1      -4.609  -0.795   0.593  1.00  0.00    +0.118 C 
ATOM     29  C   UNL     1      -6.252   0.173  -0.979  1.00  0.00    +0.118 C 
ATOM     30  C   UNL     1      -4.825   0.363   1.568  1.00  0.00    +0.040 C 
ATOM     31  C   UNL     1      -6.487   1.358  -0.043  1.00  0.00    +0.040 C 
ATOM     32  C   UNL     1      -6.206   1.013   1.423  1.00  0.00    +0.054 C 
BRANCH  32  33
ATOM     33  N   UNL     1      -7.274   0.172   1.982  1.00  0.00    -0.328 NA
ATOM     34  H   UNL     1      -7.095   0.017   2.974  1.00  0.00    +0.119 HD
ATOM     35  H   UNL     1      -7.269  -0.749   1.549  1.00  0.00    +0.119 HD
ENDBRANCH  32  33
ENDBRANCH  23  27
ENDBRANCH   9  17
TORSDOF 6
