MODEL 1
REMARK VINA RESULT:   -10.346      0.000      0.000
REMARK INTER + INTRA:         -14.845
REMARK INTER:                 -13.672
REMARK INTRA:                  -1.173
REMARK UNBOUND:                -1.173
REMARK SMILES CC1(COc2ccc3c(c2)ncn3-c2ccc3cccc(N4CCC(N)CC4)c3n2)COC1
REMARK SMILES IDX 5 1 6 2 7 3 8 4 9 5 10 6 11 7 12 8 13 9 4 10 3 11 2 12 31 13
REMARK SMILES IDX 33 14 32 15 1 16 14 17 15 18 30 19 16 20 29 21 17 22 21 23
REMARK SMILES IDX 18 24 20 25 19 26 22 27 23 28 28 29 24 30 27 31 25 32 26 33
REMARK H PARENT 26 34 26 35
ROOT
ATOM      1  C   UNL     1     -12.374   1.096 -11.331  1.00  0.00    +0.121 A 
ATOM      2  C   UNL     1     -11.181   1.115 -12.051  1.00  0.00    +0.049 A 
ATOM      3  C   UNL     1     -10.983   2.006 -13.119  1.00  0.00    +0.033 A 
ATOM      4  C   UNL     1     -12.016   2.902 -13.440  1.00  0.00    +0.075 A 
ATOM      5  C   UNL     1     -13.235   2.859 -12.755  1.00  0.00    +0.093 A 
ATOM      6  C   UNL     1     -13.410   1.964 -11.688  1.00  0.00    +0.077 A 
ATOM      7  N   UNL     1     -14.141   3.738 -13.278  1.00  0.00    -0.236 NA
ATOM      8  C   UNL     1     -13.508   4.317 -14.271  1.00  0.00    +0.206 A 
ATOM      9  N   UNL     1     -12.195   3.905 -14.390  1.00  0.00    -0.283 N 
ENDROOT
BRANCH   1  10
ATOM     10  O   UNL     1     -12.665   0.271 -10.280  1.00  0.00    -0.493 OA
BRANCH  10  11
ATOM     11  C   UNL     1     -11.627  -0.594  -9.815  1.00  0.00    +0.241 C 
BRANCH  11  12
ATOM     12  C   UNL     1     -12.079  -2.041 -10.019  1.00  0.00    +0.048 C 
ATOM     13  C   UNL     1     -11.201  -3.052  -9.260  1.00  0.00    +0.172 C 
ATOM     14  C   UNL     1     -11.480  -2.704 -11.272  1.00  0.00    +0.172 C 
ATOM     15  O   UNL     1     -10.473  -3.377 -10.469  1.00  0.00    -0.380 OA
ATOM     16  C   UNL     1     -13.575  -2.244  -9.822  1.00  0.00    +0.020 C 
ENDBRANCH  11  12
ENDBRANCH  10  11
ENDBRANCH   1  10
BRANCH   9  17
ATOM     17  C   UNL     1     -11.296   4.470 -15.341  1.00  0.00    +0.139 A 
ATOM     18  C   UNL     1     -11.537   5.692 -15.941  1.00  0.00    +0.048 A 
ATOM     19  N   UNL     1     -10.205   3.724 -15.652  1.00  0.00    -0.228 NA
ATOM     20  C   UNL     1     -10.608   6.167 -16.863  1.00  0.00    +0.014 A 
ATOM     21  C   UNL     1      -9.284   4.170 -16.543  1.00  0.00    +0.096 A 
ATOM     22  C   UNL     1      -9.468   5.417 -17.176  1.00  0.00    +0.002 A 
ATOM     23  C   UNL     1      -8.134   3.399 -16.873  1.00  0.00    +0.063 A 
ATOM     24  C   UNL     1      -8.541   5.894 -18.112  1.00  0.00    +0.010 A 
ATOM     25  C   UNL     1      -7.224   3.904 -17.824  1.00  0.00    +0.028 A 
ATOM     26  C   UNL     1      -7.422   5.138 -18.436  1.00  0.00    +0.003 A 
BRANCH  23  27
ATOM     27  N   UNL     1      -7.919   2.138 -16.257  1.00  0.00    -0.370 N 
ATOM     28  C   UNL     1      -6.510   1.905 -15.895  1.00  0.00    +0.118 C 
ATOM     29  C   UNL     1      -8.604   0.964 -16.811  1.00  0.00    +0.118 C 
ATOM     30  C   UNL     1      -6.428   0.779 -14.865  1.00  0.00    +0.040 C 
ATOM     31  C   UNL     1      -8.572  -0.170 -15.787  1.00  0.00    +0.040 C 
ATOM     32  C   UNL     1      -7.151  -0.496 -15.317  1.00  0.00    +0.054 C 
BRANCH  32  33
ATOM     33  N   UNL     1      -6.402  -1.216 -16.356  1.00  0.00    -0.328 NA
ATOM     34  H   UNL     1      -5.499  -0.763 -16.495  1.00  0.00    +0.119 HD
ATOM     35  H   UNL     1      -6.885  -1.159 -17.250  1.00  0.00    +0.119 HD
ENDBRANCH  32  33
ENDBRANCH  23  27
ENDBRANCH   9  17
TORSDOF 6
ENDMDL
MODEL 2
REMARK VINA RESULT:   -10.273      1.358      1.933
REMARK INTER + INTRA:         -14.749
REMARK INTER:                 -13.836
REMARK INTRA:                  -0.913
REMARK UNBOUND:                -1.173
REMARK SMILES CC1(COc2ccc3c(c2)ncn3-c2ccc3cccc(N4CCC(N)CC4)c3n2)COC1
REMARK SMILES IDX 5 1 6 2 7 3 8 4 9 5 10 6 11 7 12 8 13 9 4 10 3 11 2 12 31 13
REMARK SMILES IDX 33 14 32 15 1 16 14 17 15 18 30 19 16 20 29 21 17 22 21 23
REMARK SMILES IDX 18 24 20 25 19 26 22 27 23 28 28 29 24 30 27 31 25 32 26 33
REMARK H PARENT 26 34 26 35
ROOT
ATOM      1  C   UNL     1     -12.388   1.124 -11.311  1.00  0.00    +0.121 A 
ATOM      2  C   UNL     1     -11.186   1.126 -12.015  1.00  0.00    +0.049 A 
ATOM      3  C   UNL     1     -10.965   2.007 -13.087  1.00  0.00    +0.033 A 
ATOM      4  C   UNL     1     -11.985   2.911 -13.428  1.00  0.00    +0.075 A 
ATOM      5  C   UNL     1     -13.214   2.885 -12.758  1.00  0.00    +0.093 A 
ATOM      6  C   UNL     1     -13.411   1.999 -11.688  1.00  0.00    +0.077 A 
ATOM      7  N   UNL     1     -14.104   3.768 -13.300  1.00  0.00    -0.236 NA
ATOM      8  C   UNL     1     -13.453   4.333 -14.289  1.00  0.00    +0.206 A 
ATOM      9  N   UNL     1     -12.142   3.908 -14.388  1.00  0.00    -0.283 N 
ENDROOT
BRANCH   1  10
ATOM     10  O   UNL     1     -12.701   0.309 -10.257  1.00  0.00    -0.493 OA
BRANCH  10  11
ATOM     11  C   UNL     1     -14.074   0.232  -9.869  1.00  0.00    +0.241 C 
BRANCH  11  12
ATOM     12  C   UNL     1     -14.142  -0.335  -8.451  1.00  0.00    +0.048 C 
ATOM     13  C   UNL     1     -15.211   0.355  -7.584  1.00  0.00    +0.172 C 
ATOM     14  C   UNL     1     -13.154   0.328  -7.473  1.00  0.00    +0.172 C 
ATOM     15  O   UNL     1     -14.207   1.172  -6.936  1.00  0.00    -0.380 OA
ATOM     16  C   UNL     1     -14.188  -1.855  -8.405  1.00  0.00    +0.020 C 
ENDBRANCH  11  12
ENDBRANCH  10  11
ENDBRANCH   1  10
BRANCH   9  17
ATOM     17  C   UNL     1     -11.226   4.458 -15.331  1.00  0.00    +0.139 A 
ATOM     18  C   UNL     1     -11.445   5.679 -15.941  1.00  0.00    +0.048 A 
ATOM     19  N   UNL     1     -10.140   3.697 -15.625  1.00  0.00    -0.228 NA
ATOM     20  C   UNL     1     -10.500   6.138 -16.854  1.00  0.00    +0.014 A 
ATOM     21  C   UNL     1      -9.204   4.127 -16.507  1.00  0.00    +0.096 A 
ATOM     22  C   UNL     1      -9.366   5.373 -17.150  1.00  0.00    +0.002 A 
ATOM     23  C   UNL     1      -8.059   3.342 -16.820  1.00  0.00    +0.063 A 
ATOM     24  C   UNL     1      -8.422   5.834 -18.077  1.00  0.00    +0.010 A 
ATOM     25  C   UNL     1      -7.132   3.831 -17.763  1.00  0.00    +0.028 A 
ATOM     26  C   UNL     1      -7.308   5.064 -18.383  1.00  0.00    +0.003 A 
BRANCH  23  27
ATOM     27  N   UNL     1      -7.866   2.081 -16.194  1.00  0.00    -0.370 N 
ATOM     28  C   UNL     1      -6.445   1.742 -16.007  1.00  0.00    +0.118 C 
ATOM     29  C   UNL     1      -8.707   0.956 -16.618  1.00  0.00    +0.118 C 
ATOM     30  C   UNL     1      -6.319   0.637 -14.958  1.00  0.00    +0.040 C 
ATOM     31  C   UNL     1      -8.632  -0.154 -15.570  1.00  0.00    +0.040 C 
ATOM     32  C   UNL     1      -7.192  -0.584 -15.272  1.00  0.00    +0.054 C 
BRANCH  32  33
ATOM     33  N   UNL     1      -6.642  -1.387 -16.374  1.00  0.00    -0.328 NA
ATOM     34  H   UNL     1      -6.659  -0.836 -17.232  1.00  0.00    +0.119 HD
ATOM     35  H   UNL     1      -7.227  -2.201 -16.551  1.00  0.00    +0.119 HD
ENDBRANCH  32  33
ENDBRANCH  23  27
ENDBRANCH   9  17
TORSDOF 6
ENDMDL
MODEL 3
REMARK VINA RESULT:    -9.699      2.188      2.870
REMARK INTER + INTRA:         -13.991
REMARK INTER:                 -13.077
REMARK INTRA:                  -0.913
REMARK UNBOUND:                -1.173
REMARK SMILES CC1(COc2ccc3c(c2)ncn3-c2ccc3cccc(N4CCC(N)CC4)c3n2)COC1
REMARK SMILES IDX 5 1 6 2 7 3 8 4 9 5 10 6 11 7 12 8 13 9 4 10 3 11 2 12 31 13
REMARK SMILES IDX 33 14 32 15 1 16 14 17 15 18 30 19 16 20 29 21 17 22 21 23
REMARK SMILES IDX 18 24 20 25 19 26 22 27 23 28 28 29 24 30 27 31 25 32 26 33
REMARK H PARENT 26 34 26 35
ROOT
ATOM      1  C   UNL     1     -13.732   1.526 -11.204  1.00  0.00    +0.121 A 
ATOM      2  C   UNL     1     -14.071   2.632 -11.981  1.00  0.00    +0.049 A 
ATOM      3  C   UNL     1     -13.169   3.184 -12.905  1.00  0.00    +0.033 A 
ATOM      4  C   UNL     1     -11.908   2.580 -13.048  1.00  0.00    +0.075 A 
ATOM      5  C   UNL     1     -11.540   1.499 -12.239  1.00  0.00    +0.093 A 
ATOM      6  C   UNL     1     -12.459   0.961 -11.325  1.00  0.00    +0.077 A 
ATOM      7  N   UNL     1     -10.246   1.120 -12.459  1.00  0.00    -0.236 NA
ATOM      8  C   UNL     1      -9.810   1.944 -13.381  1.00  0.00    +0.206 A 
ATOM      9  N   UNL     1     -10.781   2.818 -13.831  1.00  0.00    -0.283 N 
ENDROOT
BRANCH   1  10
ATOM     10  O   UNL     1     -14.535   0.917 -10.279  1.00  0.00    -0.493 OA
BRANCH  10  11
ATOM     11  C   UNL     1     -14.119  -0.356  -9.782  1.00  0.00    +0.241 C 
BRANCH  11  12
ATOM     12  C   UNL     1     -14.635  -0.506  -8.350  1.00  0.00    +0.048 C 
ATOM     13  C   UNL     1     -15.493   0.690  -7.898  1.00  0.00    +0.172 C 
ATOM     14  C   UNL     1     -13.650   0.004  -7.282  1.00  0.00    +0.172 C 
ATOM     15  O   UNL     1     -14.379   1.256  -7.166  1.00  0.00    -0.380 OA
ATOM     16  C   UNL     1     -15.261  -1.864  -8.068  1.00  0.00    +0.020 C 
ENDBRANCH  11  12
ENDBRANCH  10  11
ENDBRANCH   1  10
BRANCH   9  17
ATOM     17  C   UNL     1     -10.553   3.739 -14.895  1.00  0.00    +0.139 A 
ATOM     18  C   UNL     1     -11.438   4.762 -15.181  1.00  0.00    +0.048 A 
ATOM     19  N   UNL     1      -9.435   3.534 -15.636  1.00  0.00    -0.228 NA
ATOM     20  C   UNL     1     -11.139   5.613 -16.241  1.00  0.00    +0.014 A 
ATOM     21  C   UNL     1      -9.121   4.353 -16.670  1.00  0.00    +0.096 A 
ATOM     22  C   UNL     1      -9.978   5.424 -17.000  1.00  0.00    +0.002 A 
ATOM     23  C   UNL     1      -7.949   4.152 -17.452  1.00  0.00    +0.063 A 
ATOM     24  C   UNL     1      -9.687   6.277 -18.073  1.00  0.00    +0.010 A 
ATOM     25  C   UNL     1      -7.688   5.022 -18.530  1.00  0.00    +0.028 A 
ATOM     26  C   UNL     1      -8.544   6.075 -18.836  1.00  0.00    +0.003 A 
BRANCH  23  27
ATOM     27  N   UNL     1      -7.066   3.081 -17.150  1.00  0.00    -0.370 N 
ATOM     28  C   UNL     1      -5.792   3.532 -16.564  1.00  0.00    +0.118 C 
ATOM     29  C   UNL     1      -6.933   1.990 -18.123  1.00  0.00    +0.118 C 
ATOM     30  C   UNL     1      -5.107   2.357 -15.866  1.00  0.00    +0.040 C 
ATOM     31  C   UNL     1      -6.284   0.784 -17.444  1.00  0.00    +0.040 C 
ATOM     32  C   UNL     1      -4.950   1.133 -16.776  1.00  0.00    +0.054 C 
BRANCH  32  33
ATOM     33  N   UNL     1      -3.891   1.323 -17.778  1.00  0.00    -0.328 NA
ATOM     34  H   UNL     1      -3.085   0.753 -17.527  1.00  0.00    +0.119 HD
ATOM     35  H   UNL     1      -3.565   2.287 -17.777  1.00  0.00    +0.119 HD
ENDBRANCH  32  33
ENDBRANCH  23  27
ENDBRANCH   9  17
TORSDOF 6
ENDMDL
MODEL 4
REMARK VINA RESULT:    -9.496      3.285      7.851
REMARK INTER + INTRA:         -13.722
REMARK INTER:                 -12.968
REMARK INTRA:                  -0.754
REMARK UNBOUND:                -1.173
REMARK SMILES CC1(COc2ccc3c(c2)ncn3-c2ccc3cccc(N4CCC(N)CC4)c3n2)COC1
REMARK SMILES IDX 5 1 6 2 7 3 8 4 9 5 10 6 11 7 12 8 13 9 4 10 3 11 2 12 31 13
REMARK SMILES IDX 33 14 32 15 1 16 14 17 15 18 30 19 16 20 29 21 17 22 21 23
REMARK SMILES IDX 18 24 20 25 19 26 22 27 23 28 28 29 24 30 27 31 25 32 26 33
REMARK H PARENT 26 34 26 35
ROOT
ATOM      1  C   UNL     1     -10.952   5.511 -16.201  1.00  0.00    +0.121 A 
ATOM      2  C   UNL     1     -10.114   4.630 -15.522  1.00  0.00    +0.049 A 
ATOM      3  C   UNL     1     -10.603   3.782 -14.514  1.00  0.00    +0.033 A 
ATOM      4  C   UNL     1     -11.975   3.827 -14.214  1.00  0.00    +0.075 A 
ATOM      5  C   UNL     1     -12.816   4.742 -14.856  1.00  0.00    +0.093 A 
ATOM      6  C   UNL     1     -12.306   5.577 -15.863  1.00  0.00    +0.077 A 
ATOM      7  N   UNL     1     -14.087   4.699 -14.356  1.00  0.00    -0.236 NA
ATOM      8  C   UNL     1     -14.045   3.782 -13.419  1.00  0.00    +0.206 A 
ATOM      9  N   UNL     1     -12.813   3.166 -13.318  1.00  0.00    -0.283 N 
ENDROOT
BRANCH   1  10
ATOM     10  O   UNL     1     -10.575   6.375 -17.193  1.00  0.00    -0.493 OA
BRANCH  10  11
ATOM     11  C   UNL     1     -10.776   5.954 -18.544  1.00  0.00    +0.241 C 
BRANCH  11  12
ATOM     12  C   UNL     1      -9.696   6.599 -19.414  1.00  0.00    +0.048 C 
ATOM     13  C   UNL     1      -9.679   8.134 -19.302  1.00  0.00    +0.172 C 
ATOM     14  C   UNL     1     -10.149   6.871 -20.860  1.00  0.00    +0.172 C 
ATOM     15  O   UNL     1     -10.403   8.267 -20.549  1.00  0.00    -0.380 OA
ATOM     16  C   UNL     1      -8.328   5.948 -19.268  1.00  0.00    +0.020 C 
ENDBRANCH  11  12
ENDBRANCH  10  11
ENDBRANCH   1  10
BRANCH   9  17
ATOM     17  C   UNL     1     -12.568   2.078 -12.430  1.00  0.00    +0.139 A 
ATOM     18  C   UNL     1     -13.414   1.787 -11.376  1.00  0.00    +0.048 A 
ATOM     19  N   UNL     1     -11.437   1.362 -12.656  1.00  0.00    -0.228 NA
ATOM     20  C   UNL     1     -13.098   0.709 -10.555  1.00  0.00    +0.014 A 
ATOM     21  C   UNL     1     -11.111   0.304 -11.872  1.00  0.00    +0.096 A 
ATOM     22  C   UNL     1     -11.944  -0.050 -10.790  1.00  0.00    +0.002 A 
ATOM     23  C   UNL     1      -9.930  -0.457 -12.102  1.00  0.00    +0.063 A 
ATOM     24  C   UNL     1     -11.623  -1.129  -9.955  1.00  0.00    +0.010 A 
ATOM     25  C   UNL     1      -9.632  -1.531 -11.239  1.00  0.00    +0.028 A 
ATOM     26  C   UNL     1     -10.469  -1.866 -10.180  1.00  0.00    +0.003 A 
BRANCH  23  27
ATOM     27  N   UNL     1      -9.067  -0.126 -13.180  1.00  0.00    -0.370 N 
ATOM     28  C   UNL     1      -9.720  -0.234 -14.496  1.00  0.00    +0.118 C 
ATOM     29  C   UNL     1      -7.686  -0.623 -13.146  1.00  0.00    +0.118 C 
ATOM     30  C   UNL     1      -8.911   0.547 -15.532  1.00  0.00    +0.040 C 
ATOM     31  C   UNL     1      -6.841   0.165 -14.147  1.00  0.00    +0.040 C 
ATOM     32  C   UNL     1      -7.432   0.142 -15.560  1.00  0.00    +0.054 C 
BRANCH  32  33
ATOM     33  N   UNL     1      -7.229  -1.167 -16.197  1.00  0.00    -0.328 NA
ATOM     34  H   UNL     1      -7.467  -1.099 -17.186  1.00  0.00    +0.119 HD
ATOM     35  H   UNL     1      -7.862  -1.859 -15.802  1.00  0.00    +0.119 HD
ENDBRANCH  32  33
ENDBRANCH  23  27
ENDBRANCH   9  17
TORSDOF 6
ENDMDL
MODEL 5
REMARK VINA RESULT:    -9.481      2.148      3.502
REMARK INTER + INTRA:         -13.702
REMARK INTER:                 -12.917
REMARK INTRA:                  -0.785
REMARK UNBOUND:                -1.173
REMARK SMILES CC1(COc2ccc3c(c2)ncn3-c2ccc3cccc(N4CCC(N)CC4)c3n2)COC1
REMARK SMILES IDX 5 1 6 2 7 3 8 4 9 5 10 6 11 7 12 8 13 9 4 10 3 11 2 12 31 13
REMARK SMILES IDX 33 14 32 15 1 16 14 17 15 18 30 19 16 20 29 21 17 22 21 23
REMARK SMILES IDX 18 24 20 25 19 26 22 27 23 28 28 29 24 30 27 31 25 32 26 33
REMARK H PARENT 26 34 26 35
ROOT
ATOM      1  C   UNL     1     -12.214  -1.013  -9.543  1.00  0.00    +0.121 A 
ATOM      2  C   UNL     1     -12.553   0.335  -9.638  1.00  0.00    +0.049 A 
ATOM      3  C   UNL     1     -12.198   1.104 -10.759  1.00  0.00    +0.033 A 
ATOM      4  C   UNL     1     -11.501   0.475 -11.804  1.00  0.00    +0.075 A 
ATOM      5  C   UNL     1     -11.113  -0.865 -11.698  1.00  0.00    +0.093 A 
ATOM      6  C   UNL     1     -11.483  -1.615 -10.571  1.00  0.00    +0.077 A 
ATOM      7  N   UNL     1     -10.362  -1.261 -12.768  1.00  0.00    -0.236 NA
ATOM      8  C   UNL     1     -10.276  -0.194 -13.528  1.00  0.00    +0.206 A 
ATOM      9  N   UNL     1     -10.994   0.879 -13.037  1.00  0.00    -0.283 N 
ENDROOT
BRANCH   1  10
ATOM     10  O   UNL     1     -12.511  -1.845  -8.498  1.00  0.00    -0.493 OA
BRANCH  10  11
ATOM     11  C   UNL     1     -13.808  -1.725  -7.910  1.00  0.00    +0.241 C 
BRANCH  11  12
ATOM     12  C   UNL     1     -14.600  -2.994  -8.228  1.00  0.00    +0.048 C 
ATOM     13  C   UNL     1     -15.800  -2.730  -9.155  1.00  0.00    +0.172 C 
ATOM     14  C   UNL     1     -15.683  -3.323  -7.185  1.00  0.00    +0.172 C 
ATOM     15  O   UNL     1     -16.714  -2.747  -8.031  1.00  0.00    -0.380 OA
ATOM     16  C   UNL     1     -13.726  -4.164  -8.658  1.00  0.00    +0.020 C 
ENDBRANCH  11  12
ENDBRANCH  10  11
ENDBRANCH   1  10
BRANCH   9  17
ATOM     17  C   UNL     1     -11.116   2.110 -13.746  1.00  0.00    +0.139 A 
ATOM     18  C   UNL     1     -12.206   2.945 -13.583  1.00  0.00    +0.048 A 
ATOM     19  N   UNL     1     -10.119   2.400 -14.620  1.00  0.00    -0.228 NA
ATOM     20  C   UNL     1     -12.247   4.126 -14.319  1.00  0.00    +0.014 A 
ATOM     21  C   UNL     1     -10.136   3.547 -15.344  1.00  0.00    +0.096 A 
ATOM     22  C   UNL     1     -11.214   4.446 -15.208  1.00  0.00    +0.002 A 
ATOM     23  C   UNL     1      -9.093   3.865 -16.260  1.00  0.00    +0.063 A 
ATOM     24  C   UNL     1     -11.264   5.631 -15.956  1.00  0.00    +0.010 A 
ATOM     25  C   UNL     1      -9.177   5.060 -17.002  1.00  0.00    +0.028 A 
ATOM     26  C   UNL     1     -10.248   5.935 -16.851  1.00  0.00    +0.003 A 
BRANCH  23  27
ATOM     27  N   UNL     1      -7.994   2.980 -16.425  1.00  0.00    -0.370 N 
ATOM     28  C   UNL     1      -6.799   3.642 -16.976  1.00  0.00    +0.118 C 
ATOM     29  C   UNL     1      -8.250   1.642 -16.968  1.00  0.00    +0.118 C 
ATOM     30  C   UNL     1      -5.567   2.778 -16.705  1.00  0.00    +0.040 C 
ATOM     31  C   UNL     1      -7.050   0.741 -16.680  1.00  0.00    +0.040 C 
ATOM     32  C   UNL     1      -5.734   1.334 -17.194  1.00  0.00    +0.054 C 
BRANCH  32  33
ATOM     33  N   UNL     1      -5.644   1.233 -18.657  1.00  0.00    -0.328 NA
ATOM     34  H   UNL     1      -4.944   1.891 -18.997  1.00  0.00    +0.119 HD
ATOM     35  H   UNL     1      -6.523   1.509 -19.090  1.00  0.00    +0.119 HD
ENDBRANCH  32  33
ENDBRANCH  23  27
ENDBRANCH   9  17
TORSDOF 6
ENDMDL
MODEL 6
REMARK VINA RESULT:    -9.371      2.025      3.090
REMARK INTER + INTRA:         -13.557
REMARK INTER:                 -12.668
REMARK INTRA:                  -0.889
REMARK UNBOUND:                -1.173
REMARK SMILES CC1(COc2ccc3c(c2)ncn3-c2ccc3cccc(N4CCC(N)CC4)c3n2)COC1
REMARK SMILES IDX 5 1 6 2 7 3 8 4 9 5 10 6 11 7 12 8 13 9 4 10 3 11 2 12 31 13
REMARK SMILES IDX 33 14 32 15 1 16 14 17 15 18 30 19 16 20 29 21 17 22 21 23
REMARK SMILES IDX 18 24 20 25 19 26 22 27 23 28 28 29 24 30 27 31 25 32 26 33
REMARK H PARENT 26 34 26 35
ROOT
ATOM      1  C   UNL     1     -12.264  -0.947  -9.767  1.00  0.00    +0.121 A 
ATOM      2  C   UNL     1     -12.713   0.347 -10.023  1.00  0.00    +0.049 A 
ATOM      3  C   UNL     1     -12.200   1.104 -11.090  1.00  0.00    +0.033 A 
ATOM      4  C   UNL     1     -11.227   0.516 -11.916  1.00  0.00    +0.075 A 
ATOM      5  C   UNL     1     -10.734  -0.764 -11.638  1.00  0.00    +0.093 A 
ATOM      6  C   UNL     1     -11.264  -1.503 -10.570  1.00  0.00    +0.077 A 
ATOM      7  N   UNL     1      -9.727  -1.115 -12.492  1.00  0.00    -0.236 NA
ATOM      8  C   UNL     1      -9.587  -0.079 -13.285  1.00  0.00    +0.206 A 
ATOM      9  N   UNL     1     -10.504   0.924 -13.035  1.00  0.00    -0.283 N 
ENDROOT
BRANCH   1  10
ATOM     10  O   UNL     1     -12.697  -1.763  -8.757  1.00  0.00    -0.493 OA
BRANCH  10  11
ATOM     11  C   UNL     1     -12.283  -3.130  -8.792  1.00  0.00    +0.241 C 
BRANCH  11  12
ATOM     12  C   UNL     1     -13.490  -3.988  -9.172  1.00  0.00    +0.048 C 
ATOM     13  C   UNL     1     -13.379  -5.434  -8.655  1.00  0.00    +0.172 C 
ATOM     14  C   UNL     1     -13.369  -4.646 -10.559  1.00  0.00    +0.172 C 
ATOM     15  O   UNL     1     -12.957  -5.903  -9.959  1.00  0.00    -0.380 OA
ATOM     16  C   UNL     1     -14.827  -3.322  -8.878  1.00  0.00    +0.020 C 
ENDBRANCH  11  12
ENDBRANCH  10  11
ENDBRANCH   1  10
BRANCH   9  17
ATOM     17  C   UNL     1     -10.594   2.100 -13.835  1.00  0.00    +0.139 A 
ATOM     18  C   UNL     1     -11.649   2.986 -13.720  1.00  0.00    +0.048 A 
ATOM     19  N   UNL     1      -9.602   2.285 -14.743  1.00  0.00    -0.228 NA
ATOM     20  C   UNL     1     -11.660   4.108 -14.544  1.00  0.00    +0.014 A 
ATOM     21  C   UNL     1      -9.589   3.373 -15.552  1.00  0.00    +0.096 A 
ATOM     22  C   UNL     1     -10.632   4.320 -15.471  1.00  0.00    +0.002 A 
ATOM     23  C   UNL     1      -8.552   3.580 -16.505  1.00  0.00    +0.063 A 
ATOM     24  C   UNL     1     -10.652   5.445 -16.306  1.00  0.00    +0.010 A 
ATOM     25  C   UNL     1      -8.605   4.718 -17.336  1.00  0.00    +0.028 A 
ATOM     26  C   UNL     1      -9.641   5.642 -17.237  1.00  0.00    +0.003 A 
BRANCH  23  27
ATOM     27  N   UNL     1      -7.489   2.645 -16.617  1.00  0.00    -0.370 N 
ATOM     28  C   UNL     1      -6.191   3.279 -16.905  1.00  0.00    +0.118 C 
ATOM     29  C   UNL     1      -7.730   1.398 -17.352  1.00  0.00    +0.118 C 
ATOM     30  C   UNL     1      -5.062   2.305 -16.568  1.00  0.00    +0.040 C 
ATOM     31  C   UNL     1      -6.636   0.388 -17.007  1.00  0.00    +0.040 C 
ATOM     32  C   UNL     1      -5.229   0.942 -17.249  1.00  0.00    +0.054 C 
BRANCH  32  33
ATOM     33  N   UNL     1      -4.924   1.002 -18.686  1.00  0.00    -0.328 NA
ATOM     34  H   UNL     1      -4.160   1.659 -18.840  1.00  0.00    +0.119 HD
ATOM     35  H   UNL     1      -5.718   1.368 -19.206  1.00  0.00    +0.119 HD
ENDBRANCH  32  33
ENDBRANCH  23  27
ENDBRANCH   9  17
TORSDOF 6
ENDMDL
MODEL 7
REMARK VINA RESULT:    -9.122      3.780      9.279
REMARK INTER + INTRA:         -13.228
REMARK INTER:                 -12.499
REMARK INTRA:                  -0.729
REMARK UNBOUND:                -1.173
REMARK SMILES CC1(COc2ccc3c(c2)ncn3-c2ccc3cccc(N4CCC(N)CC4)c3n2)COC1
REMARK SMILES IDX 5 1 6 2 7 3 8 4 9 5 10 6 11 7 12 8 13 9 4 10 3 11 2 12 31 13
REMARK SMILES IDX 33 14 32 15 1 16 14 17 15 18 30 19 16 20 29 21 17 22 21 23
REMARK SMILES IDX 18 24 20 25 19 26 22 27 23 28 28 29 24 30 27 31 25 32 26 33
REMARK H PARENT 26 34 26 35
ROOT
ATOM      1  C   UNL     1     -10.702   5.309 -16.217  1.00  0.00    +0.121 A 
ATOM      2  C   UNL     1      -9.684   4.388 -15.974  1.00  0.00    +0.049 A 
ATOM      3  C   UNL     1      -9.835   3.360 -15.028  1.00  0.00    +0.033 A 
ATOM      4  C   UNL     1     -11.054   3.266 -14.336  1.00  0.00    +0.075 A 
ATOM      5  C   UNL     1     -12.064   4.213 -14.537  1.00  0.00    +0.093 A 
ATOM      6  C   UNL     1     -11.893   5.229 -15.490  1.00  0.00    +0.077 A 
ATOM      7  N   UNL     1     -13.125   4.007 -13.702  1.00  0.00    -0.236 NA
ATOM      8  C   UNL     1     -12.790   2.958 -12.990  1.00  0.00    +0.206 A 
ATOM      9  N   UNL     1     -11.574   2.417 -13.361  1.00  0.00    -0.283 N 
ENDROOT
BRANCH   1  10
ATOM     10  O   UNL     1     -10.654   6.342 -17.113  1.00  0.00    -0.493 OA
BRANCH  10  11
ATOM     11  C   UNL     1     -10.805   6.020 -18.497  1.00  0.00    +0.241 C 
BRANCH  11  12
ATOM     12  C   UNL     1      -9.648   6.659 -19.268  1.00  0.00    +0.048 C 
ATOM     13  C   UNL     1      -9.552   8.179 -19.045  1.00  0.00    +0.172 C 
ATOM     14  C   UNL     1     -10.012   7.056 -20.710  1.00  0.00    +0.172 C 
ATOM     15  O   UNL     1     -10.204   8.440 -20.312  1.00  0.00    -0.380 OA
ATOM     16  C   UNL     1      -8.328   5.919 -19.105  1.00  0.00    +0.020 C 
ENDBRANCH  11  12
ENDBRANCH  10  11
ENDBRANCH   1  10
BRANCH   9  17
ATOM     17  C   UNL     1     -11.057   1.221 -12.784  1.00  0.00    +0.139 A 
ATOM     18  C   UNL     1     -10.015   0.519 -13.361  1.00  0.00    +0.048 A 
ATOM     19  N   UNL     1     -11.670   0.787 -11.653  1.00  0.00    -0.228 NA
ATOM     20  C   UNL     1      -9.575  -0.643 -12.733  1.00  0.00    +0.014 A 
ATOM     21  C   UNL     1     -11.255  -0.339 -11.021  1.00  0.00    +0.096 A 
ATOM     22  C   UNL     1     -10.186  -1.089 -11.555  1.00  0.00    +0.002 A 
ATOM     23  C   UNL     1     -11.886  -0.801  -9.832  1.00  0.00    +0.063 A 
ATOM     24  C   UNL     1      -9.747  -2.265 -10.931  1.00  0.00    +0.010 A 
ATOM     25  C   UNL     1     -11.427  -1.992  -9.233  1.00  0.00    +0.028 A 
ATOM     26  C   UNL     1     -10.368  -2.715  -9.773  1.00  0.00    +0.003 A 
BRANCH  23  27
ATOM     27  N   UNL     1     -12.968  -0.073  -9.269  1.00  0.00    -0.370 N 
ATOM     28  C   UNL     1     -13.158  -0.340  -7.833  1.00  0.00    +0.118 C 
ATOM     29  C   UNL     1     -14.214   0.030 -10.037  1.00  0.00    +0.118 C 
ATOM     30  C   UNL     1     -14.004   0.774  -7.215  1.00  0.00    +0.040 C 
ATOM     31  C   UNL     1     -15.067   1.162  -9.466  1.00  0.00    +0.040 C 
ATOM     32  C   UNL     1     -15.322   1.005  -7.963  1.00  0.00    +0.054 C 
BRANCH  32  33
ATOM     33  N   UNL     1     -16.300  -0.061  -7.701  1.00  0.00    -0.328 NA
ATOM     34  H   UNL     1     -16.007  -0.592  -6.882  1.00  0.00    +0.119 HD
ATOM     35  H   UNL     1     -16.322  -0.725  -8.472  1.00  0.00    +0.119 HD
ENDBRANCH  32  33
ENDBRANCH  23  27
ENDBRANCH   9  17
TORSDOF 6
ENDMDL
MODEL 8
REMARK VINA RESULT:    -9.108      4.104      8.522
REMARK INTER + INTRA:         -13.209
REMARK INTER:                 -12.228
REMARK INTRA:                  -0.981
REMARK UNBOUND:                -1.173
REMARK SMILES CC1(COc2ccc3c(c2)ncn3-c2ccc3cccc(N4CCC(N)CC4)c3n2)COC1
REMARK SMILES IDX 5 1 6 2 7 3 8 4 9 5 10 6 11 7 12 8 13 9 4 10 3 11 2 12 31 13
REMARK SMILES IDX 33 14 32 15 1 16 14 17 15 18 30 19 16 20 29 21 17 22 21 23
REMARK SMILES IDX 18 24 20 25 19 26 22 27 23 28 28 29 24 30 27 31 25 32 26 33
REMARK H PARENT 26 34 26 35
ROOT
ATOM      1  C   UNL     1      -5.022   0.828 -17.643  1.00  0.00    +0.121 A 
ATOM      2  C   UNL     1      -6.330   1.180 -17.969  1.00  0.00    +0.049 A 
ATOM      3  C   UNL     1      -7.320   1.322 -16.982  1.00  0.00    +0.033 A 
ATOM      4  C   UNL     1      -6.956   1.117 -15.640  1.00  0.00    +0.075 A 
ATOM      5  C   UNL     1      -5.658   0.716 -15.306  1.00  0.00    +0.093 A 
ATOM      6  C   UNL     1      -4.684   0.584 -16.308  1.00  0.00    +0.077 A 
ATOM      7  N   UNL     1      -5.532   0.473 -13.968  1.00  0.00    -0.236 NA
ATOM      8  C   UNL     1      -6.723   0.712 -13.472  1.00  0.00    +0.206 A 
ATOM      9  N   UNL     1      -7.622   1.166 -14.418  1.00  0.00    -0.283 N 
ENDROOT
BRANCH   1  10
ATOM     10  O   UNL     1      -3.990   0.664 -18.525  1.00  0.00    -0.493 OA
BRANCH  10  11
ATOM     11  C   UNL     1      -3.155  -0.483 -18.357  1.00  0.00    +0.241 C 
BRANCH  11  12
ATOM     12  C   UNL     1      -1.743  -0.122 -18.821  1.00  0.00    +0.048 C 
ATOM     13  C   UNL     1      -0.693  -0.270 -17.705  1.00  0.00    +0.172 C 
ATOM     14  C   UNL     1      -1.419   1.378 -18.706  1.00  0.00    +0.172 C 
ATOM     15  O   UNL     1      -0.703   1.158 -17.461  1.00  0.00    -0.380 OA
ATOM     16  C   UNL     1      -1.349  -0.778 -20.137  1.00  0.00    +0.020 C 
ENDBRANCH  11  12
ENDBRANCH  10  11
ENDBRANCH   1  10
BRANCH   9  17
ATOM     17  C   UNL     1      -8.947   1.574 -14.084  1.00  0.00    +0.139 A 
ATOM     18  C   UNL     1      -9.731   0.864 -13.195  1.00  0.00    +0.048 A 
ATOM     19  N   UNL     1      -9.410   2.682 -14.718  1.00  0.00    -0.228 NA
ATOM     20  C   UNL     1     -11.015   1.331 -12.930  1.00  0.00    +0.014 A 
ATOM     21  C   UNL     1     -10.656   3.158 -14.472  1.00  0.00    +0.096 A 
ATOM     22  C   UNL     1     -11.497   2.484 -13.561  1.00  0.00    +0.002 A 
ATOM     23  C   UNL     1     -11.152   4.321 -15.126  1.00  0.00    +0.063 A 
ATOM     24  C   UNL     1     -12.794   2.945 -13.300  1.00  0.00    +0.010 A 
ATOM     25  C   UNL     1     -12.464   4.755 -14.847  1.00  0.00    +0.028 A 
ATOM     26  C   UNL     1     -13.276   4.078 -13.943  1.00  0.00    +0.003 A 
BRANCH  23  27
ATOM     27  N   UNL     1     -10.333   5.023 -16.051  1.00  0.00    -0.370 N 
ATOM     28  C   UNL     1     -10.785   6.404 -16.289  1.00  0.00    +0.118 C 
ATOM     29  C   UNL     1      -9.879   4.318 -17.255  1.00  0.00    +0.118 C 
ATOM     30  C   UNL     1      -9.646   7.213 -16.909  1.00  0.00    +0.040 C 
ATOM     31  C   UNL     1      -8.713   5.084 -17.879  1.00  0.00    +0.040 C 
ATOM     32  C   UNL     1      -9.057   6.550 -18.160  1.00  0.00    +0.054 C 
BRANCH  32  33
ATOM     33  N   UNL     1      -9.949   6.671 -19.322  1.00  0.00    -0.328 NA
ATOM     34  H   UNL     1     -10.518   7.511 -19.222  1.00  0.00    +0.119 HD
ATOM     35  H   UNL     1     -10.604   5.892 -19.354  1.00  0.00    +0.119 HD
ENDBRANCH  32  33
ENDBRANCH  23  27
ENDBRANCH   9  17
TORSDOF 6
ENDMDL
MODEL 9
REMARK VINA RESULT:    -8.983      3.374      7.481
REMARK INTER + INTRA:         -13.045
REMARK INTER:                 -11.849
REMARK INTRA:                  -1.196
REMARK UNBOUND:                -1.173
REMARK SMILES CC1(COc2ccc3c(c2)ncn3-c2ccc3cccc(N4CCC(N)CC4)c3n2)COC1
REMARK SMILES IDX 5 1 6 2 7 3 8 4 9 5 10 6 11 7 12 8 13 9 4 10 3 11 2 12 31 13
REMARK SMILES IDX 33 14 32 15 1 16 14 17 15 18 30 19 16 20 29 21 17 22 21 23
REMARK SMILES IDX 18 24 20 25 19 26 22 27 23 28 28 29 24 30 27 31 25 32 26 33
REMARK H PARENT 26 34 26 35
ROOT
ATOM      1  C   UNL     1     -11.166   5.139 -16.009  1.00  0.00    +0.121 A 
ATOM      2  C   UNL     1      -9.958   4.451 -15.913  1.00  0.00    +0.049 A 
ATOM      3  C   UNL     1      -9.801   3.362 -15.039  1.00  0.00    +0.033 A 
ATOM      4  C   UNL     1     -10.906   2.962 -14.268  1.00  0.00    +0.075 A 
ATOM      5  C   UNL     1     -12.108   3.676 -14.321  1.00  0.00    +0.093 A 
ATOM      6  C   UNL     1     -12.243   4.758 -15.204  1.00  0.00    +0.077 A 
ATOM      7  N   UNL     1     -13.022   3.195 -13.427  1.00  0.00    -0.236 NA
ATOM      8  C   UNL     1     -12.408   2.204 -12.824  1.00  0.00    +0.206 A 
ATOM      9  N   UNL     1     -11.143   1.965 -13.325  1.00  0.00    -0.283 N 
ENDROOT
BRANCH   1  10
ATOM     10  O   UNL     1     -11.419   6.207 -16.825  1.00  0.00    -0.493 OA
BRANCH  10  11
ATOM     11  C   UNL     1     -11.174   6.041 -18.223  1.00  0.00    +0.241 C 
BRANCH  11  12
ATOM     12  C   UNL     1      -9.990   6.927 -18.612  1.00  0.00    +0.048 C 
ATOM     13  C   UNL     1     -10.137   7.534 -20.019  1.00  0.00    +0.172 C 
ATOM     14  C   UNL     1      -8.820   6.151 -19.245  1.00  0.00    +0.172 C 
ATOM     15  O   UNL     1      -9.248   6.537 -20.579  1.00  0.00    -0.380 OA
ATOM     16  C   UNL     1      -9.603   7.933 -17.537  1.00  0.00    +0.020 C 
ENDBRANCH  11  12
ENDBRANCH  10  11
ENDBRANCH   1  10
BRANCH   9  17
ATOM     17  C   UNL     1     -10.334   0.879 -12.880  1.00  0.00    +0.139 A 
ATOM     18  C   UNL     1     -10.751   0.012 -11.888  1.00  0.00    +0.048 A 
ATOM     19  N   UNL     1      -9.112   0.765 -13.461  1.00  0.00    -0.228 NA
ATOM     20  C   UNL     1      -9.895  -1.019 -11.512  1.00  0.00    +0.014 A 
ATOM     21  C   UNL     1      -8.264  -0.234 -13.114  1.00  0.00    +0.096 A 
ATOM     22  C   UNL     1      -8.641  -1.160 -12.118  1.00  0.00    +0.002 A 
ATOM     23  C   UNL     1      -6.982  -0.368 -13.719  1.00  0.00    +0.063 A 
ATOM     24  C   UNL     1      -7.778  -2.193 -11.729  1.00  0.00    +0.010 A 
ATOM     25  C   UNL     1      -6.134  -1.413 -13.300  1.00  0.00    +0.028 A 
ATOM     26  C   UNL     1      -6.527  -2.318 -12.319  1.00  0.00    +0.003 A 
BRANCH  23  27
ATOM     27  N   UNL     1      -6.568   0.548 -14.723  1.00  0.00    -0.370 N 
ATOM     28  C   UNL     1      -6.511  -0.054 -16.065  1.00  0.00    +0.118 C 
ATOM     29  C   UNL     1      -5.460   1.462 -14.420  1.00  0.00    +0.118 C 
ATOM     30  C   UNL     1      -6.508   1.052 -17.121  1.00  0.00    +0.040 C 
ATOM     31  C   UNL     1      -5.452   2.602 -15.437  1.00  0.00    +0.040 C 
ATOM     32  C   UNL     1      -5.411   2.098 -16.883  1.00  0.00    +0.054 C 
BRANCH  32  33
ATOM     33  N   UNL     1      -4.077   1.587 -17.227  1.00  0.00    -0.328 NA
ATOM     34  H   UNL     1      -3.369   2.210 -16.840  1.00  0.00    +0.119 HD
ATOM     35  H   UNL     1      -3.938   1.597 -18.235  1.00  0.00    +0.119 HD
ENDBRANCH  32  33
ENDBRANCH  23  27
ENDBRANCH   9  17
TORSDOF 6
ENDMDL
