REMARK SMILES CC1(COc2ccc3c(c2)ncn3-c2ccc3cccc(N4CCC(N)CC4)c3n2)COC1
REMARK SMILES IDX 5 1 6 2 7 3 8 4 9 5 10 6 11 7 12 8 13 9 4 10 3 11 2 12 31 13
REMARK SMILES IDX 33 14 32 15 1 16 14 17 15 18 30 19 16 20 29 21 17 22 21 23
REMARK SMILES IDX 18 24 20 25 19 26 22 27 23 28 28 29 24 30 27 31 25 32 26 33
REMARK H PARENT 26 34 26 35
ROOT
ATOM      1  C   UNL     1       3.849  -0.739   0.596  1.00  0.00    +0.121 A 
ATOM      2  C   UNL     1       3.091  -1.706   1.256  1.00  0.00    +0.049 A 
ATOM      3  C   UNL     1       1.698  -1.780   1.118  1.00  0.00    +0.033 A 
ATOM      4  C   UNL     1       1.074  -0.854   0.267  1.00  0.00    +0.075 A 
ATOM      5  C   UNL     1       1.815   0.150  -0.362  1.00  0.00    +0.093 A 
ATOM      6  C   UNL     1       3.213   0.203  -0.214  1.00  0.00    +0.077 A 
ATOM      7  N   UNL     1       1.012   1.009  -1.060  1.00  0.00    -0.236 NA
ATOM      8  C   UNL     1      -0.204   0.553  -0.873  1.00  0.00    +0.206 A 
ATOM      9  N   UNL     1      -0.239  -0.607  -0.127  1.00  0.00    -0.283 N 
ENDROOT
BRANCH   1  10
ATOM     10  O   UNL     1       5.194  -0.809   0.838  1.00  0.00    -0.493 OA
BRANCH  10  11
ATOM     11  C   UNL     1       6.026   0.149   0.178  1.00  0.00    +0.241 C 
BRANCH  11  12
ATOM     12  C   UNL     1       7.476  -0.112   0.586  1.00  0.00    +0.048 C 
ATOM     13  C   UNL     1       8.489   0.627  -0.308  1.00  0.00    +0.172 C 
ATOM     14  C   UNL     1       8.080  -1.378  -0.047  1.00  0.00    +0.172 C 
ATOM     15  O   UNL     1       8.785  -0.588  -1.038  1.00  0.00    -0.380 OA
ATOM     16  C   UNL     1       7.726   0.054   2.079  1.00  0.00    +0.020 C 
ENDBRANCH  11  12
ENDBRANCH  10  11
ENDBRANCH   1  10
BRANCH   9  17
ATOM     17  C   UNL     1      -1.444  -1.326   0.126  1.00  0.00    +0.139 A 
ATOM     18  C   UNL     1      -1.425  -2.645   0.537  1.00  0.00    +0.048 A 
ATOM     19  N   UNL     1      -2.607  -0.657  -0.096  1.00  0.00    -0.228 NA
ATOM     20  C   UNL     1      -2.640  -3.284   0.762  1.00  0.00    +0.014 A 
ATOM     21  C   UNL     1      -3.802  -1.261   0.130  1.00  0.00    +0.096 A 
ATOM     22  C   UNL     1      -3.846  -2.602   0.569  1.00  0.00    +0.002 A 
ATOM     23  C   UNL     1      -5.038  -0.591  -0.060  1.00  0.00    +0.063 A 
ATOM     24  C   UNL     1      -5.069  -3.252   0.801  1.00  0.00    +0.010 A 
ATOM     25  C   UNL     1      -6.252  -1.263   0.179  1.00  0.00    +0.028 A 
ATOM     26  C   UNL     1      -6.271  -2.584   0.606  1.00  0.00    +0.003 A 
BRANCH  23  27
ATOM     27  N   UNL     1      -5.174   0.762  -0.492  1.00  0.00    -0.370 N 
ATOM     28  C   UNL     1      -4.717   0.948  -1.879  1.00  0.00    +0.118 C 
ATOM     29  C   UNL     1      -4.571   1.719   0.450  1.00  0.00    +0.118 C 
ATOM     30  C   UNL     1      -5.143   2.339  -2.350  1.00  0.00    +0.040 C 
ATOM     31  C   UNL     1      -4.991   3.133   0.045  1.00  0.00    +0.040 C 
ATOM     32  C   UNL     1      -4.650   3.453  -1.418  1.00  0.00    +0.054 C 
BRANCH  32  33
ATOM     33  N   UNL     1      -3.216   3.699  -1.608  1.00  0.00    -0.328 NA
ATOM     34  H   UNL     1      -2.669   2.894  -1.308  1.00  0.00    +0.119 HD
ATOM     35  H   UNL     1      -2.918   4.474  -1.016  1.00  0.00    +0.119 HD
ENDBRANCH  32  33
ENDBRANCH  23  27
ENDBRANCH   9  17
TORSDOF 6
