MODEL 1
REMARK VINA RESULT:    -9.889      0.000      0.000
REMARK INTER + INTRA:         -13.832
REMARK INTER:                 -13.069
REMARK INTRA:                  -0.763
REMARK UNBOUND:                -0.763
REMARK SMILES CC1(COc2ccc3c(c2)ncn3-c2ccc3cccc(N4CCC(N)CC4)c3n2)COC1
REMARK SMILES IDX 5 1 6 2 7 3 8 4 9 5 10 6 11 7 12 8 13 9 4 10 3 11 2 12 31 13
REMARK SMILES IDX 33 14 32 15 1 16 14 17 15 18 30 19 16 20 29 21 17 22 21 23
REMARK SMILES IDX 18 24 20 25 19 26 22 27 23 28 28 29 24 30 27 31 25 32 26 33
REMARK H PARENT 26 34 26 35
ROOT
ATOM      1  C   UNL     1     -39.283 162.339  -2.037  1.00  0.00    +0.121 A 
ATOM      2  C   UNL     1     -39.235 161.276  -2.938  1.00  0.00    +0.049 A 
ATOM      3  C   UNL     1     -38.857 161.452  -4.276  1.00  0.00    +0.033 A 
ATOM      4  C   UNL     1     -38.501 162.745  -4.691  1.00  0.00    +0.075 A 
ATOM      5  C   UNL     1     -38.592 163.828  -3.812  1.00  0.00    +0.093 A 
ATOM      6  C   UNL     1     -38.968 163.628  -2.472  1.00  0.00    +0.077 A 
ATOM      7  N   UNL     1     -38.303 165.010  -4.435  1.00  0.00    -0.236 NA
ATOM      8  C   UNL     1     -38.037 164.676  -5.676  1.00  0.00    +0.206 A 
ATOM      9  N   UNL     1     -38.080 163.314  -5.891  1.00  0.00    -0.283 N 
ENDROOT
BRANCH   1  10
ATOM     10  O   UNL     1     -39.669 161.994  -0.771  1.00  0.00    -0.493 OA
BRANCH  10  11
ATOM     11  C   UNL     1     -38.827 161.084  -0.058  1.00  0.00    +0.241 C 
BRANCH  11  12
ATOM     12  C   UNL     1     -39.643 159.835   0.277  1.00  0.00    +0.048 C 
ATOM     13  C   UNL     1     -39.284 159.239   1.651  1.00  0.00    +0.172 C 
ATOM     14  C   UNL     1     -39.035 158.532  -0.271  1.00  0.00    +0.172 C 
ATOM     15  O   UNL     1     -38.492 158.197   1.031  1.00  0.00    -0.380 OA
ATOM     16  C   UNL     1     -41.138 160.006   0.044  1.00  0.00    +0.020 C 
ENDBRANCH  11  12
ENDBRANCH  10  11
ENDBRANCH   1  10
BRANCH   9  17
ATOM     17  C   UNL     1     -37.739 162.719  -7.141  1.00  0.00    +0.139 A 
ATOM     18  C   UNL     1     -37.795 161.351  -7.329  1.00  0.00    +0.048 A 
ATOM     19  N   UNL     1     -37.320 163.564  -8.121  1.00  0.00    -0.228 NA
ATOM     20  C   UNL     1     -37.445 160.841  -8.575  1.00  0.00    +0.014 A 
ATOM     21  C   UNL     1     -36.986 163.085  -9.347  1.00  0.00    +0.096 A 
ATOM     22  C   UNL     1     -37.042 161.698  -9.604  1.00  0.00    +0.002 A 
ATOM     23  C   UNL     1     -36.572 163.934 -10.405  1.00  0.00    +0.063 A 
ATOM     24  C   UNL     1     -36.693 161.177 -10.861  1.00  0.00    +0.010 A 
ATOM     25  C   UNL     1     -36.227 163.389 -11.657  1.00  0.00    +0.028 A 
ATOM     26  C   UNL     1     -36.285 162.020 -11.886  1.00  0.00    +0.003 A 
BRANCH  23  27
ATOM     27  N   UNL     1     -36.467 165.354 -10.318  1.00  0.00    -0.370 N 
ATOM     28  C   UNL     1     -37.786 166.004 -10.260  1.00  0.00    +0.118 C 
ATOM     29  C   UNL     1     -35.587 165.920 -11.354  1.00  0.00    +0.118 C 
ATOM     30  C   UNL     1     -37.588 167.476  -9.897  1.00  0.00    +0.040 C 
ATOM     31  C   UNL     1     -35.328 167.391 -11.024  1.00  0.00    +0.040 C 
ATOM     32  C   UNL     1     -36.625 168.194 -10.851  1.00  0.00    +0.054 C 
BRANCH  32  33
ATOM     33  N   UNL     1     -37.274 168.476 -12.136  1.00  0.00    -0.328 NA
ATOM     34  H   UNL     1     -37.029 167.769 -12.827  1.00  0.00    +0.119 HD
ATOM     35  H   UNL     1     -36.929 169.360 -12.510  1.00  0.00    +0.119 HD
ENDBRANCH  32  33
ENDBRANCH  23  27
ENDBRANCH   9  17
TORSDOF 6
ENDMDL
MODEL 2
REMARK VINA RESULT:    -9.640      1.883      4.190
REMARK INTER + INTRA:         -13.503
REMARK INTER:                 -12.697
REMARK INTRA:                  -0.806
REMARK UNBOUND:                -0.763
REMARK SMILES CC1(COc2ccc3c(c2)ncn3-c2ccc3cccc(N4CCC(N)CC4)c3n2)COC1
REMARK SMILES IDX 5 1 6 2 7 3 8 4 9 5 10 6 11 7 12 8 13 9 4 10 3 11 2 12 31 13
REMARK SMILES IDX 33 14 32 15 1 16 14 17 15 18 30 19 16 20 29 21 17 22 21 23
REMARK SMILES IDX 18 24 20 25 19 26 22 27 23 28 28 29 24 30 27 31 25 32 26 33
REMARK H PARENT 26 34 26 35
ROOT
ATOM      1  C   UNL     1     -39.005 160.919  -3.457  1.00  0.00    +0.121 A 
ATOM      2  C   UNL     1     -38.868 160.642  -4.817  1.00  0.00    +0.049 A 
ATOM      3  C   UNL     1     -38.661 161.654  -5.764  1.00  0.00    +0.033 A 
ATOM      4  C   UNL     1     -38.571 162.976  -5.301  1.00  0.00    +0.075 A 
ATOM      5  C   UNL     1     -38.754 163.273  -3.948  1.00  0.00    +0.093 A 
ATOM      6  C   UNL     1     -38.955 162.241  -3.013  1.00  0.00    +0.077 A 
ATOM      7  N   UNL     1     -38.731 164.621  -3.718  1.00  0.00    -0.236 NA
ATOM      8  C   UNL     1     -38.538 165.156  -4.900  1.00  0.00    +0.206 A 
ATOM      9  N   UNL     1     -38.373 164.218  -5.899  1.00  0.00    -0.283 N 
ENDROOT
BRANCH   1  10
ATOM     10  O   UNL     1     -39.198 159.817  -2.669  1.00  0.00    -0.493 OA
BRANCH  10  11
ATOM     11  C   UNL     1     -38.241 159.578  -1.634  1.00  0.00    +0.241 C 
BRANCH  11  12
ATOM     12  C   UNL     1     -38.980 159.529  -0.297  1.00  0.00    +0.048 C 
ATOM     13  C   UNL     1     -40.493 159.780  -0.443  1.00  0.00    +0.172 C 
ATOM     14  C   UNL     1     -38.990 160.871   0.456  1.00  0.00    +0.172 C 
ATOM     15  O   UNL     1     -40.347 161.144   0.023  1.00  0.00    -0.380 OA
ATOM     16  C   UNL     1     -38.630 158.310   0.546  1.00  0.00    +0.020 C 
ENDBRANCH  11  12
ENDBRANCH  10  11
ENDBRANCH   1  10
BRANCH   9  17
ATOM     17  C   UNL     1     -38.064 164.571  -7.246  1.00  0.00    +0.139 A 
ATOM     18  C   UNL     1     -38.048 165.889  -7.661  1.00  0.00    +0.048 A 
ATOM     19  N   UNL     1     -37.826 163.542  -8.102  1.00  0.00    -0.228 NA
ATOM     20  C   UNL     1     -37.740 166.158  -8.991  1.00  0.00    +0.014 A 
ATOM     21  C   UNL     1     -37.512 163.787  -9.401  1.00  0.00    +0.096 A 
ATOM     22  C   UNL     1     -37.462 165.114  -9.879  1.00  0.00    +0.002 A 
ATOM     23  C   UNL     1     -37.228 162.746 -10.321  1.00  0.00    +0.063 A 
ATOM     24  C   UNL     1     -37.149 165.393 -11.220  1.00  0.00    +0.010 A 
ATOM     25  C   UNL     1     -36.916 163.049 -11.660  1.00  0.00    +0.028 A 
ATOM     26  C   UNL     1     -36.877 164.362 -12.110  1.00  0.00    +0.003 A 
BRANCH  23  27
ATOM     27  N   UNL     1     -37.228 161.354 -10.004  1.00  0.00    -0.370 N 
ATOM     28  C   UNL     1     -36.285 161.035  -8.919  1.00  0.00    +0.118 C 
ATOM     29  C   UNL     1     -37.054 160.504 -11.192  1.00  0.00    +0.118 C 
ATOM     30  C   UNL     1     -36.540 159.599  -8.460  1.00  0.00    +0.040 C 
ATOM     31  C   UNL     1     -37.329 159.052 -10.798  1.00  0.00    +0.040 C 
ATOM     32  C   UNL     1     -36.469 158.590  -9.613  1.00  0.00    +0.054 C 
BRANCH  32  33
ATOM     33  N   UNL     1     -35.077 158.341 -10.006  1.00  0.00    -0.328 NA
ATOM     34  H   UNL     1     -34.433 158.753  -9.333  1.00  0.00    +0.119 HD
ATOM     35  H   UNL     1     -34.883 158.802 -10.895  1.00  0.00    +0.119 HD
ENDBRANCH  32  33
ENDBRANCH  23  27
ENDBRANCH   9  17
TORSDOF 6
ENDMDL
MODEL 3
REMARK VINA RESULT:    -9.164      2.006      4.066
REMARK INTER + INTRA:         -12.873
REMARK INTER:                 -12.252
REMARK INTRA:                  -0.621
REMARK UNBOUND:                -0.763
REMARK SMILES CC1(COc2ccc3c(c2)ncn3-c2ccc3cccc(N4CCC(N)CC4)c3n2)COC1
REMARK SMILES IDX 5 1 6 2 7 3 8 4 9 5 10 6 11 7 12 8 13 9 4 10 3 11 2 12 31 13
REMARK SMILES IDX 33 14 32 15 1 16 14 17 15 18 30 19 16 20 29 21 17 22 21 23
REMARK SMILES IDX 18 24 20 25 19 26 22 27 23 28 28 29 24 30 27 31 25 32 26 33
REMARK H PARENT 26 34 26 35
ROOT
ATOM      1  C   UNL     1     -39.363 161.236  -0.714  1.00  0.00    +0.121 A 
ATOM      2  C   UNL     1     -39.000 162.555  -0.988  1.00  0.00    +0.049 A 
ATOM      3  C   UNL     1     -38.761 163.004  -2.294  1.00  0.00    +0.033 A 
ATOM      4  C   UNL     1     -38.920 162.083  -3.343  1.00  0.00    +0.075 A 
ATOM      5  C   UNL     1     -39.236 160.748  -3.079  1.00  0.00    +0.093 A 
ATOM      6  C   UNL     1     -39.477 160.319  -1.761  1.00  0.00    +0.077 A 
ATOM      7  N   UNL     1     -39.242 159.995  -4.220  1.00  0.00    -0.236 NA
ATOM      8  C   UNL     1     -38.938 160.839  -5.177  1.00  0.00    +0.206 A 
ATOM      9  N   UNL     1     -38.786 162.135  -4.728  1.00  0.00    -0.283 N 
ENDROOT
BRANCH   1  10
ATOM     10  O   UNL     1     -39.561 160.966   0.612  1.00  0.00    -0.493 OA
BRANCH  10  11
ATOM     11  C   UNL     1     -40.734 160.224   0.959  1.00  0.00    +0.241 C 
BRANCH  11  12
ATOM     12  C   UNL     1     -40.311 159.022   1.803  1.00  0.00    +0.048 C 
ATOM     13  C   UNL     1     -39.090 159.320   2.694  1.00  0.00    +0.172 C 
ATOM     14  C   UNL     1     -39.350 158.063   1.079  1.00  0.00    +0.172 C 
ATOM     15  O   UNL     1     -38.210 158.617   1.784  1.00  0.00    -0.380 OA
ATOM     16  C   UNL     1     -41.468 158.357   2.536  1.00  0.00    +0.020 C 
ENDBRANCH  11  12
ENDBRANCH  10  11
ENDBRANCH   1  10
BRANCH   9  17
ATOM     17  C   UNL     1     -38.541 163.232  -5.605  1.00  0.00    +0.139 A 
ATOM     18  C   UNL     1     -38.542 164.536  -5.148  1.00  0.00    +0.048 A 
ATOM     19  N   UNL     1     -38.345 162.928  -6.916  1.00  0.00    -0.228 NA
ATOM     20  C   UNL     1     -38.298 165.556  -6.062  1.00  0.00    +0.014 A 
ATOM     21  C   UNL     1     -38.094 163.910  -7.820  1.00  0.00    +0.096 A 
ATOM     22  C   UNL     1     -38.064 165.260  -7.409  1.00  0.00    +0.002 A 
ATOM     23  C   UNL     1     -37.855 163.635  -9.191  1.00  0.00    +0.063 A 
ATOM     24  C   UNL     1     -37.815 166.294  -8.326  1.00  0.00    +0.010 A 
ATOM     25  C   UNL     1     -37.608 164.688 -10.092  1.00  0.00    +0.028 A 
ATOM     26  C   UNL     1     -37.588 166.009  -9.666  1.00  0.00    +0.003 A 
BRANCH  23  27
ATOM     27  N   UNL     1     -37.842 162.331  -9.771  1.00  0.00    -0.370 N 
ATOM     28  C   UNL     1     -36.659 161.556  -9.362  1.00  0.00    +0.118 C 
ATOM     29  C   UNL     1     -38.041 162.360 -11.230  1.00  0.00    +0.118 C 
ATOM     30  C   UNL     1     -36.855 160.103  -9.797  1.00  0.00    +0.040 C 
ATOM     31  C   UNL     1     -38.274 160.929 -11.718  1.00  0.00    +0.040 C 
ATOM     32  C   UNL     1     -37.151 159.971 -11.296  1.00  0.00    +0.054 C 
BRANCH  32  33
ATOM     33  N   UNL     1     -35.933 160.167 -12.090  1.00  0.00    -0.328 NA
ATOM     34  H   UNL     1     -35.772 159.372 -12.706  1.00  0.00    +0.119 HD
ATOM     35  H   UNL     1     -35.122 160.209 -11.472  1.00  0.00    +0.119 HD
ENDBRANCH  32  33
ENDBRANCH  23  27
ENDBRANCH   9  17
TORSDOF 6
ENDMDL
MODEL 4
REMARK VINA RESULT:    -8.959      1.585      3.789
REMARK INTER + INTRA:         -12.603
REMARK INTER:                 -12.135
REMARK INTRA:                  -0.468
REMARK UNBOUND:                -0.763
REMARK SMILES CC1(COc2ccc3c(c2)ncn3-c2ccc3cccc(N4CCC(N)CC4)c3n2)COC1
REMARK SMILES IDX 5 1 6 2 7 3 8 4 9 5 10 6 11 7 12 8 13 9 4 10 3 11 2 12 31 13
REMARK SMILES IDX 33 14 32 15 1 16 14 17 15 18 30 19 16 20 29 21 17 22 21 23
REMARK SMILES IDX 18 24 20 25 19 26 22 27 23 28 28 29 24 30 27 31 25 32 26 33
REMARK H PARENT 26 34 26 35
ROOT
ATOM      1  C   UNL     1     -39.073 162.418  -2.578  1.00  0.00    +0.121 A 
ATOM      2  C   UNL     1     -38.854 163.753  -2.917  1.00  0.00    +0.049 A 
ATOM      3  C   UNL     1     -38.544 164.146  -4.226  1.00  0.00    +0.033 A 
ATOM      4  C   UNL     1     -38.479 163.148  -5.212  1.00  0.00    +0.075 A 
ATOM      5  C   UNL     1     -38.649 161.802  -4.878  1.00  0.00    +0.093 A 
ATOM      6  C   UNL     1     -38.965 161.430  -3.558  1.00  0.00    +0.077 A 
ATOM      7  N   UNL     1     -38.446 160.984  -5.954  1.00  0.00    -0.236 NA
ATOM      8  C   UNL     1     -38.156 161.799  -6.941  1.00  0.00    +0.206 A 
ATOM      9  N   UNL     1     -38.214 163.130  -6.579  1.00  0.00    -0.283 N 
ENDROOT
BRANCH   1  10
ATOM     10  O   UNL     1     -39.368 162.208  -1.259  1.00  0.00    -0.493 OA
BRANCH  10  11
ATOM     11  C   UNL     1     -38.684 161.137  -0.601  1.00  0.00    +0.241 C 
BRANCH  11  12
ATOM     12  C   UNL     1     -39.717 160.084  -0.199  1.00  0.00    +0.048 C 
ATOM     13  C   UNL     1     -39.313 159.305   1.067  1.00  0.00    +0.172 C 
ATOM     14  C   UNL     1     -39.526 158.728  -0.902  1.00  0.00    +0.172 C 
ATOM     15  O   UNL     1     -38.893 158.167   0.276  1.00  0.00    -0.380 OA
ATOM     16  C   UNL     1     -41.145 160.611  -0.176  1.00  0.00    +0.020 C 
ENDBRANCH  11  12
ENDBRANCH  10  11
ENDBRANCH   1  10
BRANCH   9  17
ATOM     17  C   UNL     1     -38.023 164.192  -7.511  1.00  0.00    +0.139 A 
ATOM     18  C   UNL     1     -38.022 165.514  -7.109  1.00  0.00    +0.048 A 
ATOM     19  N   UNL     1     -37.881 163.835  -8.816  1.00  0.00    -0.228 NA
ATOM     20  C   UNL     1     -37.832 166.497  -8.074  1.00  0.00    +0.014 A 
ATOM     21  C   UNL     1     -37.683 164.781  -9.770  1.00  0.00    +0.096 A 
ATOM     22  C   UNL     1     -37.653 166.148  -9.417  1.00  0.00    +0.002 A 
ATOM     23  C   UNL     1     -37.500 164.452 -11.137  1.00  0.00    +0.063 A 
ATOM     24  C   UNL     1     -37.459 167.146 -10.385  1.00  0.00    +0.010 A 
ATOM     25  C   UNL     1     -37.307 165.469 -12.091  1.00  0.00    +0.028 A 
ATOM     26  C   UNL     1     -37.286 166.808 -11.722  1.00  0.00    +0.003 A 
BRANCH  23  27
ATOM     27  N   UNL     1     -37.495 163.125 -11.663  1.00  0.00    -0.370 N 
ATOM     28  C   UNL     1     -38.723 162.390 -11.318  1.00  0.00    +0.118 C 
ATOM     29  C   UNL     1     -36.265 162.390 -11.329  1.00  0.00    +0.118 C 
ATOM     30  C   UNL     1     -38.761 161.097 -12.133  1.00  0.00    +0.040 C 
ATOM     31  C   UNL     1     -36.234 161.095 -12.143  1.00  0.00    +0.040 C 
ATOM     32  C   UNL     1     -37.499 160.246 -11.949  1.00  0.00    +0.054 C 
BRANCH  32  33
ATOM     33  N   UNL     1     -37.510 159.565 -10.649  1.00  0.00    -0.328 NA
ATOM     34  H   UNL     1     -36.623 159.694 -10.166  1.00  0.00    +0.119 HD
ATOM     35  H   UNL     1     -37.608 158.560 -10.788  1.00  0.00    +0.119 HD
ENDBRANCH  32  33
ENDBRANCH  23  27
ENDBRANCH   9  17
TORSDOF 6
ENDMDL
MODEL 5
REMARK VINA RESULT:    -8.596     14.803     17.419
REMARK INTER + INTRA:         -12.123
REMARK INTER:                 -10.894
REMARK INTRA:                  -1.230
REMARK UNBOUND:                -0.763
REMARK SMILES CC1(COc2ccc3c(c2)ncn3-c2ccc3cccc(N4CCC(N)CC4)c3n2)COC1
REMARK SMILES IDX 5 1 6 2 7 3 8 4 9 5 10 6 11 7 12 8 13 9 4 10 3 11 2 12 31 13
REMARK SMILES IDX 33 14 32 15 1 16 14 17 15 18 30 19 16 20 29 21 17 22 21 23
REMARK SMILES IDX 18 24 20 25 19 26 22 27 23 28 28 29 24 30 27 31 25 32 26 33
REMARK H PARENT 26 34 26 35
ROOT
ATOM      1  C   UNL     1     -36.234 153.722   6.977  1.00  0.00    +0.121 A 
ATOM      2  C   UNL     1     -37.262 153.684   6.035  1.00  0.00    +0.049 A 
ATOM      3  C   UNL     1     -37.700 152.482   5.462  1.00  0.00    +0.033 A 
ATOM      4  C   UNL     1     -37.083 151.293   5.882  1.00  0.00    +0.075 A 
ATOM      5  C   UNL     1     -36.019 151.322   6.788  1.00  0.00    +0.093 A 
ATOM      6  C   UNL     1     -35.599 152.538   7.355  1.00  0.00    +0.077 A 
ATOM      7  N   UNL     1     -35.491 150.076   6.986  1.00  0.00    -0.236 NA
ATOM      8  C   UNL     1     -36.207 149.286   6.222  1.00  0.00    +0.206 A 
ATOM      9  N   UNL     1     -37.228 149.944   5.567  1.00  0.00    -0.283 N 
ENDROOT
BRANCH   1  10
ATOM     10  O   UNL     1     -35.932 154.975   7.438  1.00  0.00    -0.493 OA
BRANCH  10  11
ATOM     11  C   UNL     1     -34.622 155.475   7.155  1.00  0.00    +0.241 C 
BRANCH  11  12
ATOM     12  C   UNL     1     -34.757 156.662   6.201  1.00  0.00    +0.048 C 
ATOM     13  C   UNL     1     -34.838 156.233   4.724  1.00  0.00    +0.172 C 
ATOM     14  C   UNL     1     -33.410 157.279   5.784  1.00  0.00    +0.172 C 
ATOM     15  O   UNL     1     -33.452 156.593   4.506  1.00  0.00    -0.380 OA
ATOM     16  C   UNL     1     -35.829 157.659   6.619  1.00  0.00    +0.020 C 
ENDBRANCH  11  12
ENDBRANCH  10  11
ENDBRANCH   1  10
BRANCH   9  17
ATOM     17  C   UNL     1     -38.185 149.269   4.754  1.00  0.00    +0.139 A 
ATOM     18  C   UNL     1     -39.510 149.170   5.130  1.00  0.00    +0.048 A 
ATOM     19  N   UNL     1     -37.715 148.697   3.613  1.00  0.00    -0.228 NA
ATOM     20  C   UNL     1     -40.387 148.494   4.288  1.00  0.00    +0.014 A 
ATOM     21  C   UNL     1     -38.558 148.044   2.773  1.00  0.00    +0.096 A 
ATOM     22  C   UNL     1     -39.928 147.927   3.095  1.00  0.00    +0.002 A 
ATOM     23  C   UNL     1     -38.116 147.459   1.558  1.00  0.00    +0.063 A 
ATOM     24  C   UNL     1     -40.819 147.248   2.247  1.00  0.00    +0.010 A 
ATOM     25  C   UNL     1     -39.028 146.784   0.724  1.00  0.00    +0.028 A 
ATOM     26  C   UNL     1     -40.370 146.677   1.064  1.00  0.00    +0.003 A 
BRANCH  23  27
ATOM     27  N   UNL     1     -36.772 147.491   1.080  1.00  0.00    -0.370 N 
ATOM     28  C   UNL     1     -36.480 148.726   0.334  1.00  0.00    +0.118 C 
ATOM     29  C   UNL     1     -36.406 146.270   0.344  1.00  0.00    +0.118 C 
ATOM     30  C   UNL     1     -34.971 148.806   0.096  1.00  0.00    +0.040 C 
ATOM     31  C   UNL     1     -34.895 146.279   0.104  1.00  0.00    +0.040 C 
ATOM     32  C   UNL     1     -34.419 147.557  -0.602  1.00  0.00    +0.054 C 
BRANCH  32  33
ATOM     33  N   UNL     1     -34.763 147.559  -2.028  1.00  0.00    -0.328 NA
ATOM     34  H   UNL     1     -35.772 147.601  -2.156  1.00  0.00    +0.119 HD
ATOM     35  H   UNL     1     -34.465 146.682  -2.456  1.00  0.00    +0.119 HD
ENDBRANCH  32  33
ENDBRANCH  23  27
ENDBRANCH   9  17
TORSDOF 6
ENDMDL
MODEL 6
REMARK VINA RESULT:    -8.412     14.426     17.438
REMARK INTER + INTRA:         -11.880
REMARK INTER:                 -10.695
REMARK INTRA:                  -1.185
REMARK UNBOUND:                -0.763
REMARK SMILES CC1(COc2ccc3c(c2)ncn3-c2ccc3cccc(N4CCC(N)CC4)c3n2)COC1
REMARK SMILES IDX 5 1 6 2 7 3 8 4 9 5 10 6 11 7 12 8 13 9 4 10 3 11 2 12 31 13
REMARK SMILES IDX 33 14 32 15 1 16 14 17 15 18 30 19 16 20 29 21 17 22 21 23
REMARK SMILES IDX 18 24 20 25 19 26 22 27 23 28 28 29 24 30 27 31 25 32 26 33
REMARK H PARENT 26 34 26 35
ROOT
ATOM      1  C   UNL     1     -36.129 153.677   6.848  1.00  0.00    +0.121 A 
ATOM      2  C   UNL     1     -35.163 152.682   6.997  1.00  0.00    +0.049 A 
ATOM      3  C   UNL     1     -35.334 151.396   6.466  1.00  0.00    +0.033 A 
ATOM      4  C   UNL     1     -36.512 151.134   5.749  1.00  0.00    +0.075 A 
ATOM      5  C   UNL     1     -37.509 152.106   5.634  1.00  0.00    +0.093 A 
ATOM      6  C   UNL     1     -37.316 153.392   6.170  1.00  0.00    +0.077 A 
ATOM      7  N   UNL     1     -38.615 151.622   4.992  1.00  0.00    -0.236 NA
ATOM      8  C   UNL     1     -38.317 150.376   4.710  1.00  0.00    +0.206 A 
ATOM      9  N   UNL     1     -37.037 150.026   5.087  1.00  0.00    -0.283 N 
ENDROOT
BRANCH   1  10
ATOM     10  O   UNL     1     -35.804 154.875   7.424  1.00  0.00    -0.493 OA
BRANCH  10  11
ATOM     11  C   UNL     1     -34.522 155.425   7.106  1.00  0.00    +0.241 C 
BRANCH  11  12
ATOM     12  C   UNL     1     -34.733 156.655   6.224  1.00  0.00    +0.048 C 
ATOM     13  C   UNL     1     -34.946 156.296   4.742  1.00  0.00    +0.172 C 
ATOM     14  C   UNL     1     -33.423 157.287   5.719  1.00  0.00    +0.172 C 
ATOM     15  O   UNL     1     -33.583 156.662   4.419  1.00  0.00    -0.380 OA
ATOM     16  C   UNL     1     -35.757 157.634   6.781  1.00  0.00    +0.020 C 
ENDBRANCH  11  12
ENDBRANCH  10  11
ENDBRANCH   1  10
BRANCH   9  17
ATOM     17  C   UNL     1     -36.470 148.750   4.801  1.00  0.00    +0.139 A 
ATOM     18  C   UNL     1     -36.032 147.912   5.809  1.00  0.00    +0.048 A 
ATOM     19  N   UNL     1     -36.348 148.421   3.487  1.00  0.00    -0.228 NA
ATOM     20  C   UNL     1     -35.487 146.682   5.455  1.00  0.00    +0.014 A 
ATOM     21  C   UNL     1     -35.829 147.221   3.124  1.00  0.00    +0.096 A 
ATOM     22  C   UNL     1     -35.382 146.314   4.110  1.00  0.00    +0.002 A 
ATOM     23  C   UNL     1     -35.711 146.825   1.766  1.00  0.00    +0.063 A 
ATOM     24  C   UNL     1     -34.833 145.070   3.759  1.00  0.00    +0.010 A 
ATOM     25  C   UNL     1     -35.157 145.573   1.439  1.00  0.00    +0.028 A 
ATOM     26  C   UNL     1     -34.720 144.699   2.425  1.00  0.00    +0.003 A 
BRANCH  23  27
ATOM     27  N   UNL     1     -36.118 147.614   0.649  1.00  0.00    -0.370 N 
ATOM     28  C   UNL     1     -36.641 146.787  -0.450  1.00  0.00    +0.118 C 
ATOM     29  C   UNL     1     -35.077 148.561   0.217  1.00  0.00    +0.118 C 
ATOM     30  C   UNL     1     -37.299 147.705  -1.481  1.00  0.00    +0.040 C 
ATOM     31  C   UNL     1     -35.689 149.530  -0.796  1.00  0.00    +0.040 C 
ATOM     32  C   UNL     1     -36.353 148.806  -1.977  1.00  0.00    +0.054 C 
BRANCH  32  33
ATOM     33  N   UNL     1     -35.365 148.264  -2.917  1.00  0.00    -0.328 NA
ATOM     34  H   UNL     1     -34.657 148.962  -3.138  1.00  0.00    +0.119 HD
ATOM     35  H   UNL     1     -35.819 148.038  -3.802  1.00  0.00    +0.119 HD
ENDBRANCH  32  33
ENDBRANCH  23  27
ENDBRANCH   9  17
TORSDOF 6
ENDMDL
MODEL 7
REMARK VINA RESULT:    -8.300     10.668     16.713
REMARK INTER + INTRA:         -11.732
REMARK INTER:                 -10.995
REMARK INTRA:                  -0.737
REMARK UNBOUND:                -0.763
REMARK SMILES CC1(COc2ccc3c(c2)ncn3-c2ccc3cccc(N4CCC(N)CC4)c3n2)COC1
REMARK SMILES IDX 5 1 6 2 7 3 8 4 9 5 10 6 11 7 12 8 13 9 4 10 3 11 2 12 31 13
REMARK SMILES IDX 33 14 32 15 1 16 14 17 15 18 30 19 16 20 29 21 17 22 21 23
REMARK SMILES IDX 18 24 20 25 19 26 22 27 23 28 28 29 24 30 27 31 25 32 26 33
REMARK H PARENT 26 34 26 35
ROOT
ATOM      1  C   UNL     1     -37.229 156.953   4.068  1.00  0.00    +0.121 A 
ATOM      2  C   UNL     1     -37.982 155.810   4.335  1.00  0.00    +0.049 A 
ATOM      3  C   UNL     1     -37.415 154.667   4.916  1.00  0.00    +0.033 A 
ATOM      4  C   UNL     1     -36.052 154.708   5.249  1.00  0.00    +0.075 A 
ATOM      5  C   UNL     1     -35.276 155.829   4.943  1.00  0.00    +0.093 A 
ATOM      6  C   UNL     1     -35.866 156.968   4.364  1.00  0.00    +0.077 A 
ATOM      7  N   UNL     1     -33.959 155.631   5.251  1.00  0.00    -0.236 NA
ATOM      8  C   UNL     1     -33.911 154.415   5.740  1.00  0.00    +0.206 A 
ATOM      9  N   UNL     1     -35.150 153.815   5.824  1.00  0.00    -0.283 N 
ENDROOT
BRANCH   1  10
ATOM     10  O   UNL     1     -37.937 157.979   3.502  1.00  0.00    -0.493 OA
BRANCH  10  11
ATOM     11  C   UNL     1     -37.858 158.119   2.080  1.00  0.00    +0.241 C 
BRANCH  11  12
ATOM     12  C   UNL     1     -39.156 158.759   1.588  1.00  0.00    +0.048 C 
ATOM     13  C   UNL     1     -39.369 158.584   0.073  1.00  0.00    +0.172 C 
ATOM     14  C   UNL     1     -39.017 160.251   1.237  1.00  0.00    +0.172 C 
ATOM     15  O   UNL     1     -38.947 159.946  -0.179  1.00  0.00    -0.380 OA
ATOM     16  C   UNL     1     -40.370 158.398   2.433  1.00  0.00    +0.020 C 
ENDBRANCH  11  12
ENDBRANCH  10  11
ENDBRANCH   1  10
BRANCH   9  17
ATOM     17  C   UNL     1     -35.348 152.528   6.405  1.00  0.00    +0.139 A 
ATOM     18  C   UNL     1     -34.673 152.141   7.547  1.00  0.00    +0.048 A 
ATOM     19  N   UNL     1     -36.203 151.694   5.755  1.00  0.00    -0.228 NA
ATOM     20  C   UNL     1     -34.914 150.869   8.056  1.00  0.00    +0.014 A 
ATOM     21  C   UNL     1     -36.459 150.454   6.244  1.00  0.00    +0.096 A 
ATOM     22  C   UNL     1     -35.814 150.008   7.418  1.00  0.00    +0.002 A 
ATOM     23  C   UNL     1     -37.366 149.563   5.615  1.00  0.00    +0.063 A 
ATOM     24  C   UNL     1     -36.055 148.727   7.939  1.00  0.00    +0.010 A 
ATOM     25  C   UNL     1     -37.592 148.283   6.155  1.00  0.00    +0.028 A 
ATOM     26  C   UNL     1     -36.942 147.864   7.309  1.00  0.00    +0.003 A 
BRANCH  23  27
ATOM     27  N   UNL     1     -38.105 149.854   4.429  1.00  0.00    -0.370 N 
ATOM     28  C   UNL     1     -38.771 151.166   4.501  1.00  0.00    +0.118 C 
ATOM     29  C   UNL     1     -39.016 148.762   4.048  1.00  0.00    +0.118 C 
ATOM     30  C   UNL     1     -39.304 151.518   3.112  1.00  0.00    +0.040 C 
ATOM     31  C   UNL     1     -39.559 149.046   2.647  1.00  0.00    +0.040 C 
ATOM     32  C   UNL     1     -40.220 150.428   2.539  1.00  0.00    +0.054 C 
BRANCH  32  33
ATOM     33  N   UNL     1     -41.538 150.460   3.183  1.00  0.00    -0.328 NA
ATOM     34  H   UNL     1     -41.928 149.522   3.252  1.00  0.00    +0.119 HD
ATOM     35  H   UNL     1     -42.191 150.990   2.606  1.00  0.00    +0.119 HD
ENDBRANCH  32  33
ENDBRANCH  23  27
ENDBRANCH   9  17
TORSDOF 6
ENDMDL
MODEL 8
REMARK VINA RESULT:    -8.181     16.129     18.962
REMARK INTER + INTRA:         -11.574
REMARK INTER:                 -10.450
REMARK INTRA:                  -1.124
REMARK UNBOUND:                -0.763
REMARK SMILES CC1(COc2ccc3c(c2)ncn3-c2ccc3cccc(N4CCC(N)CC4)c3n2)COC1
REMARK SMILES IDX 5 1 6 2 7 3 8 4 9 5 10 6 11 7 12 8 13 9 4 10 3 11 2 12 31 13
REMARK SMILES IDX 33 14 32 15 1 16 14 17 15 18 30 19 16 20 29 21 17 22 21 23
REMARK SMILES IDX 18 24 20 25 19 26 22 27 23 28 28 29 24 30 27 31 25 32 26 33
REMARK H PARENT 26 34 26 35
ROOT
ATOM      1  C   UNL     1     -39.515 146.714  -2.457  1.00  0.00    +0.121 A 
ATOM      2  C   UNL     1     -39.452 146.259  -1.140  1.00  0.00    +0.049 A 
ATOM      3  C   UNL     1     -38.380 146.576  -0.295  1.00  0.00    +0.033 A 
ATOM      4  C   UNL     1     -37.362 147.396  -0.807  1.00  0.00    +0.075 A 
ATOM      5  C   UNL     1     -37.389 147.819  -2.139  1.00  0.00    +0.093 A 
ATOM      6  C   UNL     1     -38.477 147.493  -2.969  1.00  0.00    +0.077 A 
ATOM      7  N   UNL     1     -36.261 148.517  -2.470  1.00  0.00    -0.236 NA
ATOM      8  C   UNL     1     -35.545 148.532  -1.370  1.00  0.00    +0.206 A 
ATOM      9  N   UNL     1     -36.175 147.923  -0.305  1.00  0.00    -0.283 N 
ENDROOT
BRANCH   1  10
ATOM     10  O   UNL     1     -40.630 146.315  -3.143  1.00  0.00    -0.493 OA
BRANCH  10  11
ATOM     11  C   UNL     1     -40.985 147.068  -4.305  1.00  0.00    +0.241 C 
BRANCH  11  12
ATOM     12  C   UNL     1     -42.128 146.345  -5.017  1.00  0.00    +0.048 C 
ATOM     13  C   UNL     1     -42.278 144.880  -4.567  1.00  0.00    +0.172 C 
ATOM     14  C   UNL     1     -41.724 145.724  -6.366  1.00  0.00    +0.172 C 
ATOM     15  O   UNL     1     -41.622 144.406  -5.768  1.00  0.00    -0.380 OA
ATOM     16  C   UNL     1     -43.433 147.130  -5.024  1.00  0.00    +0.020 C 
ENDBRANCH  11  12
ENDBRANCH  10  11
ENDBRANCH   1  10
BRANCH   9  17
ATOM     17  C   UNL     1     -35.621 147.899   1.009  1.00  0.00    +0.139 A 
ATOM     18  C   UNL     1     -34.295 147.576   1.227  1.00  0.00    +0.048 A 
ATOM     19  N   UNL     1     -36.474 148.172   2.031  1.00  0.00    -0.228 NA
ATOM     20  C   UNL     1     -33.825 147.570   2.536  1.00  0.00    +0.014 A 
ATOM     21  C   UNL     1     -36.030 148.182   3.314  1.00  0.00    +0.096 A 
ATOM     22  C   UNL     1     -34.681 147.879   3.599  1.00  0.00    +0.002 A 
ATOM     23  C   UNL     1     -36.878 148.491   4.408  1.00  0.00    +0.063 A 
ATOM     24  C   UNL     1     -34.198 147.874   4.918  1.00  0.00    +0.010 A 
ATOM     25  C   UNL     1     -36.373 148.480   5.722  1.00  0.00    +0.028 A 
ATOM     26  C   UNL     1     -35.043 148.173   5.979  1.00  0.00    +0.003 A 
BRANCH  23  27
ATOM     27  N   UNL     1     -38.261 148.825   4.299  1.00  0.00    -0.370 N 
ATOM     28  C   UNL     1     -38.567 150.123   4.922  1.00  0.00    +0.118 C 
ATOM     29  C   UNL     1     -39.143 147.740   4.758  1.00  0.00    +0.118 C 
ATOM     30  C   UNL     1     -39.988 150.530   4.528  1.00  0.00    +0.040 C 
ATOM     31  C   UNL     1     -40.581 148.078   4.362  1.00  0.00    +0.040 C 
ATOM     32  C   UNL     1     -41.026 149.455   4.876  1.00  0.00    +0.054 C 
BRANCH  32  33
ATOM     33  N   UNL     1     -41.302 149.442   6.317  1.00  0.00    -0.328 NA
ATOM     34  H   UNL     1     -41.586 150.365   6.639  1.00  0.00    +0.119 HD
ATOM     35  H   UNL     1     -40.450 149.218   6.830  1.00  0.00    +0.119 HD
ENDBRANCH  32  33
ENDBRANCH  23  27
ENDBRANCH   9  17
TORSDOF 6
ENDMDL
MODEL 9
REMARK VINA RESULT:    -8.106     14.826     18.774
REMARK INTER + INTRA:         -11.476
REMARK INTER:                 -10.296
REMARK INTRA:                  -1.180
REMARK UNBOUND:                -0.763
REMARK SMILES CC1(COc2ccc3c(c2)ncn3-c2ccc3cccc(N4CCC(N)CC4)c3n2)COC1
REMARK SMILES IDX 5 1 6 2 7 3 8 4 9 5 10 6 11 7 12 8 13 9 4 10 3 11 2 12 31 13
REMARK SMILES IDX 33 14 32 15 1 16 14 17 15 18 30 19 16 20 29 21 17 22 21 23
REMARK SMILES IDX 18 24 20 25 19 26 22 27 23 28 28 29 24 30 27 31 25 32 26 33
REMARK H PARENT 26 34 26 35
ROOT
ATOM      1  C   UNL     1     -37.874 147.264   0.225  1.00  0.00    +0.121 A 
ATOM      2  C   UNL     1     -36.797 147.077   1.092  1.00  0.00    +0.049 A 
ATOM      3  C   UNL     1     -36.853 147.460   2.439  1.00  0.00    +0.033 A 
ATOM      4  C   UNL     1     -38.047 148.026   2.910  1.00  0.00    +0.075 A 
ATOM      5  C   UNL     1     -39.116 148.264   2.042  1.00  0.00    +0.093 A 
ATOM      6  C   UNL     1     -39.041 147.867   0.694  1.00  0.00    +0.077 A 
ATOM      7  N   UNL     1     -40.142 148.914   2.669  1.00  0.00    -0.236 NA
ATOM      8  C   UNL     1     -39.726 149.080   3.903  1.00  0.00    +0.206 A 
ATOM      9  N   UNL     1     -38.489 148.516   4.137  1.00  0.00    -0.283 N 
ENDROOT
BRANCH   1  10
ATOM     10  O   UNL     1     -37.654 146.833  -1.055  1.00  0.00    -0.493 OA
BRANCH  10  11
ATOM     11  C   UNL     1     -37.667 147.822  -2.088  1.00  0.00    +0.241 C 
BRANCH  11  12
ATOM     12  C   UNL     1     -36.231 148.292  -2.321  1.00  0.00    +0.048 C 
ATOM     13  C   UNL     1     -35.818 149.437  -1.378  1.00  0.00    +0.172 C 
ATOM     14  C   UNL     1     -36.100 149.361  -3.420  1.00  0.00    +0.172 C 
ATOM     15  O   UNL     1     -35.997 150.416  -2.430  1.00  0.00    -0.380 OA
ATOM     16  C   UNL     1     -35.224 147.152  -2.395  1.00  0.00    +0.020 C 
ENDBRANCH  11  12
ENDBRANCH  10  11
ENDBRANCH   1  10
BRANCH   9  17
ATOM     17  C   UNL     1     -37.881 148.498   5.427  1.00  0.00    +0.139 A 
ATOM     18  C   UNL     1     -38.079 147.449   6.304  1.00  0.00    +0.048 A 
ATOM     19  N   UNL     1     -37.130 149.583   5.758  1.00  0.00    -0.228 NA
ATOM     20  C   UNL     1     -37.456 147.501   7.547  1.00  0.00    +0.014 A 
ATOM     21  C   UNL     1     -36.505 149.645   6.962  1.00  0.00    +0.096 A 
ATOM     22  C   UNL     1     -36.655 148.595   7.893  1.00  0.00    +0.002 A 
ATOM     23  C   UNL     1     -35.689 150.743   7.336  1.00  0.00    +0.063 A 
ATOM     24  C   UNL     1     -36.027 148.639   9.148  1.00  0.00    +0.010 A 
ATOM     25  C   UNL     1     -35.069 150.766   8.600  1.00  0.00    +0.028 A 
ATOM     26  C   UNL     1     -35.234 149.724   9.502  1.00  0.00    +0.003 A 
BRANCH  23  27
ATOM     27  N   UNL     1     -35.426 151.881   6.516  1.00  0.00    -0.370 N 
ATOM     28  C   UNL     1     -33.984 152.098   6.318  1.00  0.00    +0.118 C 
ATOM     29  C   UNL     1     -36.136 153.086   6.977  1.00  0.00    +0.118 C 
ATOM     30  C   UNL     1     -33.795 153.151   5.225  1.00  0.00    +0.040 C 
ATOM     31  C   UNL     1     -36.007 154.168   5.904  1.00  0.00    +0.040 C 
ATOM     32  C   UNL     1     -34.546 154.454   5.527  1.00  0.00    +0.054 C 
BRANCH  32  33
ATOM     33  N   UNL     1     -33.852 155.231   6.559  1.00  0.00    -0.328 NA
ATOM     34  H   UNL     1     -32.880 154.940   6.638  1.00  0.00    +0.119 HD
ATOM     35  H   UNL     1     -34.272 155.047   7.470  1.00  0.00    +0.119 HD
ENDBRANCH  32  33
ENDBRANCH  23  27
ENDBRANCH   9  17
TORSDOF 6
ENDMDL
MODEL 10
REMARK VINA RESULT:    -7.789     14.902     19.755
REMARK INTER + INTRA:         -11.057
REMARK INTER:                  -9.986
REMARK INTRA:                  -1.070
REMARK UNBOUND:                -0.763
REMARK SMILES CC1(COc2ccc3c(c2)ncn3-c2ccc3cccc(N4CCC(N)CC4)c3n2)COC1
REMARK SMILES IDX 5 1 6 2 7 3 8 4 9 5 10 6 11 7 12 8 13 9 4 10 3 11 2 12 31 13
REMARK SMILES IDX 33 14 32 15 1 16 14 17 15 18 30 19 16 20 29 21 17 22 21 23
REMARK SMILES IDX 18 24 20 25 19 26 22 27 23 28 28 29 24 30 27 31 25 32 26 33
REMARK H PARENT 26 34 26 35
ROOT
ATOM      1  C   UNL     1     -34.685 147.631   1.079  1.00  0.00    +0.121 A 
ATOM      2  C   UNL     1     -34.658 148.677   2.002  1.00  0.00    +0.049 A 
ATOM      3  C   UNL     1     -34.815 148.457   3.377  1.00  0.00    +0.033 A 
ATOM      4  C   UNL     1     -34.980 147.134   3.815  1.00  0.00    +0.075 A 
ATOM      5  C   UNL     1     -35.057 146.082   2.897  1.00  0.00    +0.093 A 
ATOM      6  C   UNL     1     -34.892 146.324   1.521  1.00  0.00    +0.077 A 
ATOM      7  N   UNL     1     -35.323 144.891   3.514  1.00  0.00    -0.236 NA
ATOM      8  C   UNL     1     -35.410 145.190   4.789  1.00  0.00    +0.206 A 
ATOM      9  N   UNL     1     -35.156 146.520   5.053  1.00  0.00    -0.283 N 
ENDROOT
BRANCH   1  10
ATOM     10  O   UNL     1     -34.515 148.019  -0.223  1.00  0.00    -0.493 OA
BRANCH  10  11
ATOM     11  C   UNL     1     -35.439 148.977  -0.744  1.00  0.00    +0.241 C 
BRANCH  11  12
ATOM     12  C   UNL     1     -36.033 148.418  -2.037  1.00  0.00    +0.048 C 
ATOM     13  C   UNL     1     -37.366 147.680  -1.810  1.00  0.00    +0.172 C 
ATOM     14  C   UNL     1     -35.505 147.021  -2.409  1.00  0.00    +0.172 C 
ATOM     15  O   UNL     1     -36.709 146.392  -1.902  1.00  0.00    -0.380 OA
ATOM     16  C   UNL     1     -36.067 149.428  -3.176  1.00  0.00    +0.020 C 
ENDBRANCH  11  12
ENDBRANCH  10  11
ENDBRANCH   1  10
BRANCH   9  17
ATOM     17  C   UNL     1     -35.109 147.049   6.376  1.00  0.00    +0.139 A 
ATOM     18  C   UNL     1     -35.033 146.223   7.481  1.00  0.00    +0.048 A 
ATOM     19  N   UNL     1     -35.182 148.402   6.491  1.00  0.00    -0.228 NA
ATOM     20  C   UNL     1     -34.993 146.810   8.742  1.00  0.00    +0.014 A 
ATOM     21  C   UNL     1     -35.133 148.992   7.713  1.00  0.00    +0.096 A 
ATOM     22  C   UNL     1     -35.036 148.201   8.878  1.00  0.00    +0.002 A 
ATOM     23  C   UNL     1     -35.177 150.401   7.876  1.00  0.00    +0.063 A 
ATOM     24  C   UNL     1     -34.993 148.787  10.153  1.00  0.00    +0.010 A 
ATOM     25  C   UNL     1     -35.132 150.966   9.165  1.00  0.00    +0.028 A 
ATOM     26  C   UNL     1     -35.041 150.168  10.298  1.00  0.00    +0.003 A 
BRANCH  23  27
ATOM     27  N   UNL     1     -35.267 151.343   6.809  1.00  0.00    -0.370 N 
ATOM     28  C   UNL     1     -33.981 152.011   6.551  1.00  0.00    +0.118 C 
ATOM     29  C   UNL     1     -36.385 152.285   6.980  1.00  0.00    +0.118 C 
ATOM     30  C   UNL     1     -34.091 152.789   5.239  1.00  0.00    +0.040 C 
ATOM     31  C   UNL     1     -36.563 153.073   5.681  1.00  0.00    +0.040 C 
ATOM     32  C   UNL     1     -35.270 153.770   5.232  1.00  0.00    +0.054 C 
BRANCH  32  33
ATOM     33  N   UNL     1     -34.972 154.954   6.046  1.00  0.00    -0.328 NA
ATOM     34  H   UNL     1     -35.817 155.309   6.490  1.00  0.00    +0.119 HD
ATOM     35  H   UNL     1     -34.635 155.707   5.448  1.00  0.00    +0.119 HD
ENDBRANCH  32  33
ENDBRANCH  23  27
ENDBRANCH   9  17
TORSDOF 6
ENDMDL
