REMARK SMILES Cc1ccc(Nc2nccc(N(C)c3ccc4c(C)n(C)nc4c3)n2)cc1S(N)(=O)=O
REMARK SMILES IDX 6 1 5 3 2 4 3 5 27 6 4 7 26 8 1 9 28 10 30 11 31 12 29 13
REMARK SMILES IDX 7 16 8 17 25 18 9 19 11 20 10 21 12 22 13 23 14 24 15 25
REMARK SMILES IDX 24 26 16 27 23 28 17 29 22 30 18 31 20 32 19 33 21 34
REMARK H PARENT 6 2 29 14 29 15
ROOT
ATOM      1  N   UNL     1      -1.785  -0.966   0.014  1.00  0.00    -0.324 N 
ATOM      2  H   UNL     1      -1.150  -0.478  -0.602  1.00  0.00    +0.170 HD
ENDROOT
BRANCH   1   3
ATOM      3  C   UNL     1      -3.134  -0.605  -0.035  1.00  0.00    +0.042 A 
ATOM      4  C   UNL     1      -5.864   0.207  -0.247  1.00  0.00    -0.031 A 
ATOM      5  C   UNL     1      -5.460  -0.764   0.680  1.00  0.00    +0.007 A 
ATOM      6  C   UNL     1      -4.880   0.763  -1.081  1.00  0.00    +0.087 A 
ATOM      7  C   UNL     1      -4.120  -1.158   0.783  1.00  0.00    +0.026 A 
ATOM      8  C   UNL     1      -3.538   0.355  -0.973  1.00  0.00    +0.048 A 
ATOM      9  C   UNL     1      -7.320   0.568  -0.318  1.00  0.00    +0.046 C 
BRANCH   6  10
ATOM     10  S   UNL     1      -5.268   1.971  -2.325  1.00  0.00    +0.238 S 
ATOM     11  O   UNL     1      -6.525   1.643  -2.953  1.00  0.00    -0.207 OA
ATOM     12  O   UNL     1      -4.084   2.263  -3.100  1.00  0.00    -0.207 OA
BRANCH  10  13
ATOM     13  N   UNL     1      -5.540   3.354  -1.410  1.00  0.00    -0.225 NA
ATOM     14  H   UNL     1      -6.498   3.676  -1.546  1.00  0.00    +0.137 HD
ATOM     15  H   UNL     1      -4.832   4.055  -1.632  1.00  0.00    +0.137 HD
ENDBRANCH  10  13
ENDBRANCH   6  10
ENDBRANCH   1   3
BRANCH   1  16
ATOM     16  C   UNL     1      -1.038  -1.830   0.809  1.00  0.00    +0.229 A 
ATOM     17  N   UNL     1      -1.594  -2.579   1.769  1.00  0.00    -0.221 NA
ATOM     18  N   UNL     1       0.275  -1.846   0.533  1.00  0.00    -0.195 NA
ATOM     19  C   UNL     1      -0.772  -3.360   2.487  1.00  0.00    +0.119 A 
ATOM     20  C   UNL     1       1.083  -2.647   1.254  1.00  0.00    +0.138 A 
ATOM     21  C   UNL     1       0.580  -3.433   2.272  1.00  0.00    +0.067 A 
BRANCH  20  22
ATOM     22  N   UNL     1       2.483  -2.664   0.981  1.00  0.00    -0.329 N 
ATOM     23  C   UNL     1       2.900  -3.972   0.465  1.00  0.00    +0.152 C 
BRANCH  22  24
ATOM     24  C   UNL     1       3.187  -1.513   0.500  1.00  0.00    +0.044 A 
ATOM     25  C   UNL     1       4.226  -1.607  -0.500  1.00  0.00    +0.027 A 
ATOM     26  C   UNL     1       2.860  -0.249   1.074  1.00  0.00    +0.057 A 
ATOM     27  C   UNL     1       4.980  -0.521  -1.006  1.00  0.00    +0.014 A 
ATOM     28  C   UNL     1       3.591   0.850   0.593  1.00  0.00    +0.095 A 
ATOM     29  C   UNL     1       4.605   0.676  -0.411  1.00  0.00    +0.023 A 
ATOM     30  N   UNL     1       3.518   2.148   0.927  1.00  0.00    -0.173 NA
ATOM     31  C   UNL     1       5.139   1.915  -0.675  1.00  0.00    +0.043 A 
ATOM     32  N   UNL     1       4.436   2.760   0.152  1.00  0.00    -0.272 N 
ATOM     33  C   UNL     1       6.203   2.381  -1.596  1.00  0.00    +0.067 C 
ATOM     34  C   UNL     1       4.598   4.191   0.267  1.00  0.00    +0.174 C 
ENDBRANCH  22  24
ENDBRANCH  20  22
ENDBRANCH   1  16
TORSDOF 6
