MODEL 1
REMARK VINA RESULT:   -11.002      0.000      0.000
REMARK INTER + INTRA:         -14.781
REMARK INTER:                 -14.540
REMARK INTRA:                  -0.242
REMARK UNBOUND:                -0.242
REMARK SMILES Cc1ccc(Nc2nccc(N(C)c3ccc4c(C)n(C)nc4c3)n2)cc1S(N)(=O)=O
REMARK SMILES IDX 6 1 5 3 2 4 3 5 27 6 4 7 26 8 1 9 28 10 30 11 31 12 29 13
REMARK SMILES IDX 7 16 8 17 25 18 9 19 11 20 10 21 12 22 13 23 14 24 15 25
REMARK SMILES IDX 24 26 16 27 23 28 17 29 22 30 18 31 20 32 19 33 21 34
REMARK H PARENT 6 2 29 14 29 15
ROOT
ATOM      1  N   UNL     1     -38.898 157.135   3.326  1.00  0.00    -0.324 N 
ATOM      2  H   UNL     1     -39.553 156.431   3.636  1.00  0.00    +0.170 HD
ENDROOT
BRANCH   1   3
ATOM      3  C   UNL     1     -37.642 157.158   3.937  1.00  0.00    +0.042 A 
ATOM      4  C   UNL     1     -35.078 157.068   5.192  1.00  0.00    -0.031 A 
ATOM      5  C   UNL     1     -35.598 158.264   4.678  1.00  0.00    +0.007 A 
ATOM      6  C   UNL     1     -35.857 155.906   5.060  1.00  0.00    +0.087 A 
ATOM      7  C   UNL     1     -36.857 158.305   4.065  1.00  0.00    +0.026 A 
ATOM      8  C   UNL     1     -37.117 155.958   4.437  1.00  0.00    +0.048 A 
ATOM      9  C   UNL     1     -33.713 157.091   5.819  1.00  0.00    +0.046 C 
BRANCH   6  10
ATOM     10  S   UNL     1     -35.294 154.321   5.632  1.00  0.00    +0.238 S 
ATOM     11  O   UNL     1     -35.374 154.262   7.072  1.00  0.00    -0.207 OA
ATOM     12  O   UNL     1     -34.092 153.950   4.921  1.00  0.00    -0.207 OA
BRANCH  10  13
ATOM     13  N   UNL     1     -36.481 153.286   5.047  1.00  0.00    -0.225 NA
ATOM     14  H   UNL     1     -37.052 152.942   5.820  1.00  0.00    +0.137 HD
ATOM     15  H   UNL     1     -36.047 152.548   4.492  1.00  0.00    +0.137 HD
ENDBRANCH  10  13
ENDBRANCH   6  10
ENDBRANCH   1   3
BRANCH   1  16
ATOM     16  C   UNL     1     -39.541 157.944   2.394  1.00  0.00    +0.229 A 
ATOM     17  N   UNL     1     -40.693 158.570   2.664  1.00  0.00    -0.221 NA
ATOM     18  N   UNL     1     -38.912 158.040   1.212  1.00  0.00    -0.195 NA
ATOM     19  C   UNL     1     -41.232 159.307   1.681  1.00  0.00    +0.119 A 
ATOM     20  C   UNL     1     -39.461 158.796   0.242  1.00  0.00    +0.138 A 
ATOM     21  C   UNL     1     -40.657 159.455   0.445  1.00  0.00    +0.067 A 
BRANCH  20  22
ATOM     22  N   UNL     1     -38.811 158.897  -1.024  1.00  0.00    -0.329 N 
ATOM     23  C   UNL     1     -38.905 157.633  -1.763  1.00  0.00    +0.152 C 
BRANCH  22  24
ATOM     24  C   UNL     1     -38.802 160.107  -1.790  1.00  0.00    +0.044 A 
ATOM     25  C   UNL     1     -39.089 161.394  -1.201  1.00  0.00    +0.027 A 
ATOM     26  C   UNL     1     -38.537 160.003  -3.188  1.00  0.00    +0.057 A 
ATOM     27  C   UNL     1     -39.123 162.627  -1.897  1.00  0.00    +0.014 A 
ATOM     28  C   UNL     1     -38.563 161.210  -3.907  1.00  0.00    +0.095 A 
ATOM     29  C   UNL     1     -38.849 162.454  -3.247  1.00  0.00    +0.023 A 
ATOM     30  N   UNL     1     -38.356 161.440  -5.213  1.00  0.00    -0.173 NA
ATOM     31  C   UNL     1     -38.804 163.445  -4.198  1.00  0.00    +0.043 A 
ATOM     32  N   UNL     1     -38.492 162.774  -5.358  1.00  0.00    -0.272 N 
ATOM     33  C   UNL     1     -39.011 164.912  -4.140  1.00  0.00    +0.067 C 
ATOM     34  C   UNL     1     -38.314 163.351  -6.671  1.00  0.00    +0.174 C 
ENDBRANCH  22  24
ENDBRANCH  20  22
ENDBRANCH   1  16
TORSDOF 6
ENDMDL
MODEL 2
REMARK VINA RESULT:   -10.415      6.683     11.735
REMARK INTER + INTRA:         -14.005
REMARK INTER:                 -13.744
REMARK INTRA:                  -0.261
REMARK UNBOUND:                -0.242
REMARK SMILES Cc1ccc(Nc2nccc(N(C)c3ccc4c(C)n(C)nc4c3)n2)cc1S(N)(=O)=O
REMARK SMILES IDX 6 1 5 3 2 4 3 5 27 6 4 7 26 8 1 9 28 10 30 11 31 12 29 13
REMARK SMILES IDX 7 16 8 17 25 18 9 19 11 20 10 21 12 22 13 23 14 24 15 25
REMARK SMILES IDX 24 26 16 27 23 28 17 29 22 30 18 31 20 32 19 33 21 34
REMARK H PARENT 6 2 29 14 29 15
ROOT
ATOM      1  N   UNL     1     -38.880 164.861  -5.500  1.00  0.00    -0.324 N 
ATOM      2  H   UNL     1     -39.431 165.708  -5.481  1.00  0.00    +0.170 HD
ENDROOT
BRANCH   1   3
ATOM      3  C   UNL     1     -38.409 164.428  -6.742  1.00  0.00    +0.042 A 
ATOM      4  C   UNL     1     -37.421 163.673  -9.313  1.00  0.00    -0.031 A 
ATOM      5  C   UNL     1     -37.726 162.715  -8.337  1.00  0.00    +0.007 A 
ATOM      6  C   UNL     1     -37.607 165.025  -8.981  1.00  0.00    +0.087 A 
ATOM      7  C   UNL     1     -38.213 163.088  -7.078  1.00  0.00    +0.026 A 
ATOM      8  C   UNL     1     -38.090 165.389  -7.711  1.00  0.00    +0.048 A 
ATOM      9  C   UNL     1     -36.884 163.204 -10.635  1.00  0.00    +0.046 C 
BRANCH   6  10
ATOM     10  S   UNL     1     -37.218 166.339 -10.113  1.00  0.00    +0.238 S 
ATOM     11  O   UNL     1     -38.314 166.537 -11.030  1.00  0.00    -0.207 OA
ATOM     12  O   UNL     1     -35.857 166.190 -10.575  1.00  0.00    -0.207 OA
BRANCH  10  13
ATOM     13  N   UNL     1     -37.191 167.684  -9.107  1.00  0.00    -0.225 NA
ATOM     14  H   UNL     1     -38.129 168.076  -9.028  1.00  0.00    +0.137 HD
ATOM     15  H   UNL     1     -36.491 168.347  -9.442  1.00  0.00    +0.137 HD
ENDBRANCH  10  13
ENDBRANCH   6  10
ENDBRANCH   1   3
BRANCH   1  16
ATOM     16  C   UNL     1     -38.844 164.339  -4.210  1.00  0.00    +0.229 A 
ATOM     17  N   UNL     1     -38.582 165.098  -3.139  1.00  0.00    -0.221 NA
ATOM     18  N   UNL     1     -39.091 163.023  -4.135  1.00  0.00    -0.195 NA
ATOM     19  C   UNL     1     -38.553 164.482  -1.947  1.00  0.00    +0.119 A 
ATOM     20  C   UNL     1     -39.072 162.424  -2.929  1.00  0.00    +0.138 A 
ATOM     21  C   UNL     1     -38.791 163.142  -1.783  1.00  0.00    +0.067 A 
BRANCH  20  22
ATOM     22  N   UNL     1     -39.319 161.022  -2.835  1.00  0.00    -0.329 N 
ATOM     23  C   UNL     1     -38.531 160.284  -3.829  1.00  0.00    +0.152 C 
BRANCH  22  24
ATOM     24  C   UNL     1     -39.581 160.368  -1.588  1.00  0.00    +0.044 A 
ATOM     25  C   UNL     1     -40.868 160.441  -0.935  1.00  0.00    +0.027 A 
ATOM     26  C   UNL     1     -38.506 159.663  -0.971  1.00  0.00    +0.057 A 
ATOM     27  C   UNL     1     -41.195 159.844   0.306  1.00  0.00    +0.014 A 
ATOM     28  C   UNL     1     -38.798 159.058   0.263  1.00  0.00    +0.095 A 
ATOM     29  C   UNL     1     -40.108 159.169   0.845  1.00  0.00    +0.023 A 
ATOM     30  N   UNL     1     -38.013 158.335   1.077  1.00  0.00    -0.173 NA
ATOM     31  C   UNL     1     -40.089 158.484   2.036  1.00  0.00    +0.043 A 
ATOM     32  N   UNL     1     -38.805 157.996   2.114  1.00  0.00    -0.272 N 
ATOM     33  C   UNL     1     -41.114 158.240   3.078  1.00  0.00    +0.067 C 
ATOM     34  C   UNL     1     -38.249 157.190   3.177  1.00  0.00    +0.174 C 
ENDBRANCH  22  24
ENDBRANCH  20  22
ENDBRANCH   1  16
TORSDOF 6
ENDMDL
MODEL 3
REMARK VINA RESULT:    -9.865      1.609      2.383
REMARK INTER + INTRA:         -13.278
REMARK INTER:                 -12.903
REMARK INTRA:                  -0.375
REMARK UNBOUND:                -0.242
REMARK SMILES Cc1ccc(Nc2nccc(N(C)c3ccc4c(C)n(C)nc4c3)n2)cc1S(N)(=O)=O
REMARK SMILES IDX 6 1 5 3 2 4 3 5 27 6 4 7 26 8 1 9 28 10 30 11 31 12 29 13
REMARK SMILES IDX 7 16 8 17 25 18 9 19 11 20 10 21 12 22 13 23 14 24 15 25
REMARK SMILES IDX 24 26 16 27 23 28 17 29 22 30 18 31 20 32 19 33 21 34
REMARK H PARENT 6 2 29 14 29 15
ROOT
ATOM      1  N   UNL     1     -38.233 157.891   1.847  1.00  0.00    -0.324 N 
ATOM      2  H   UNL     1     -37.840 157.346   1.092  1.00  0.00    +0.170 HD
ENDROOT
BRANCH   1   3
ATOM      3  C   UNL     1     -37.737 157.661   3.133  1.00  0.00    +0.042 A 
ATOM      4  C   UNL     1     -36.737 157.055   5.739  1.00  0.00    -0.031 A 
ATOM      5  C   UNL     1     -36.710 158.362   5.231  1.00  0.00    +0.007 A 
ATOM      6  C   UNL     1     -37.264 156.046   4.917  1.00  0.00    +0.087 A 
ATOM      7  C   UNL     1     -37.204 158.656   3.954  1.00  0.00    +0.026 A 
ATOM      8  C   UNL     1     -37.751 156.351   3.633  1.00  0.00    +0.048 A 
ATOM      9  C   UNL     1     -36.173 156.808   7.109  1.00  0.00    +0.046 C 
BRANCH   6  10
ATOM     10  S   UNL     1     -37.316 154.344   5.426  1.00  0.00    +0.238 S 
ATOM     11  O   UNL     1     -37.847 153.529   4.360  1.00  0.00    -0.207 OA
ATOM     12  O   UNL     1     -37.826 154.259   6.775  1.00  0.00    -0.207 OA
BRANCH  10  13
ATOM     13  N   UNL     1     -35.685 153.957   5.553  1.00  0.00    -0.225 NA
ATOM     14  H   UNL     1     -35.381 153.461   4.715  1.00  0.00    +0.137 HD
ATOM     15  H   UNL     1     -35.523 153.444   6.420  1.00  0.00    +0.137 HD
ENDBRANCH  10  13
ENDBRANCH   6  10
ENDBRANCH   1   3
BRANCH   1  16
ATOM     16  C   UNL     1     -39.256 158.678   1.326  1.00  0.00    +0.229 A 
ATOM     17  N   UNL     1     -40.547 158.354   1.463  1.00  0.00    -0.221 NA
ATOM     18  N   UNL     1     -38.839 159.777   0.680  1.00  0.00    -0.195 NA
ATOM     19  C   UNL     1     -41.446 159.177   0.901  1.00  0.00    +0.119 A 
ATOM     20  C   UNL     1     -39.756 160.600   0.135  1.00  0.00    +0.138 A 
ATOM     21  C   UNL     1     -41.105 160.318   0.222  1.00  0.00    +0.067 A 
BRANCH  20  22
ATOM     22  N   UNL     1     -39.326 161.765  -0.567  1.00  0.00    -0.329 N 
ATOM     23  C   UNL     1     -38.442 162.584   0.269  1.00  0.00    +0.152 C 
BRANCH  22  24
ATOM     24  C   UNL     1     -39.084 161.768  -1.979  1.00  0.00    +0.044 A 
ATOM     25  C   UNL     1     -38.911 160.547  -2.733  1.00  0.00    +0.027 A 
ATOM     26  C   UNL     1     -38.973 163.032  -2.630  1.00  0.00    +0.057 A 
ATOM     27  C   UNL     1     -38.646 160.470  -4.122  1.00  0.00    +0.014 A 
ATOM     28  C   UNL     1     -38.710 162.990  -4.009  1.00  0.00    +0.095 A 
ATOM     29  C   UNL     1     -38.559 161.733  -4.691  1.00  0.00    +0.023 A 
ATOM     30  N   UNL     1     -38.554 163.992  -4.889  1.00  0.00    -0.173 NA
ATOM     31  C   UNL     1     -38.311 162.011  -6.014  1.00  0.00    +0.043 A 
ATOM     32  N   UNL     1     -38.332 163.385  -6.072  1.00  0.00    -0.272 N 
ATOM     33  C   UNL     1     -38.068 161.153  -7.198  1.00  0.00    +0.067 C 
ATOM     34  C   UNL     1     -38.133 164.205  -7.245  1.00  0.00    +0.174 C 
ENDBRANCH  22  24
ENDBRANCH  20  22
ENDBRANCH   1  16
TORSDOF 6
ENDMDL
MODEL 4
REMARK VINA RESULT:    -9.832      4.633     10.944
REMARK INTER + INTRA:         -13.235
REMARK INTER:                 -12.706
REMARK INTRA:                  -0.529
REMARK UNBOUND:                -0.242
REMARK SMILES Cc1ccc(Nc2nccc(N(C)c3ccc4c(C)n(C)nc4c3)n2)cc1S(N)(=O)=O
REMARK SMILES IDX 6 1 5 3 2 4 3 5 27 6 4 7 26 8 1 9 28 10 30 11 31 12 29 13
REMARK SMILES IDX 7 16 8 17 25 18 9 19 11 20 10 21 12 22 13 23 14 24 15 25
REMARK SMILES IDX 24 26 16 27 23 28 17 29 22 30 18 31 20 32 19 33 21 34
REMARK H PARENT 6 2 29 14 29 15
ROOT
ATOM      1  N   UNL     1     -38.226 157.394   2.549  1.00  0.00    -0.324 N 
ATOM      2  H   UNL     1     -37.901 156.631   1.972  1.00  0.00    +0.170 HD
ENDROOT
BRANCH   1   3
ATOM      3  C   UNL     1     -39.225 158.218   2.025  1.00  0.00    +0.042 A 
ATOM      4  C   UNL     1     -41.179 159.940   0.853  1.00  0.00    -0.031 A 
ATOM      5  C   UNL     1     -41.504 159.077   1.909  1.00  0.00    +0.007 A 
ATOM      6  C   UNL     1     -39.857 159.923   0.380  1.00  0.00    +0.087 A 
ATOM      7  C   UNL     1     -40.543 158.235   2.483  1.00  0.00    +0.026 A 
ATOM      8  C   UNL     1     -38.901 159.069   0.959  1.00  0.00    +0.048 A 
ATOM      9  C   UNL     1     -42.264 160.801   0.271  1.00  0.00    +0.046 C 
BRANCH   6  10
ATOM     10  S   UNL     1     -39.327 160.938  -0.980  1.00  0.00    +0.238 S 
ATOM     11  O   UNL     1     -39.010 162.264  -0.508  1.00  0.00    -0.207 OA
ATOM     12  O   UNL     1     -40.198 160.721  -2.112  1.00  0.00    -0.207 OA
BRANCH  10  13
ATOM     13  N   UNL     1     -37.868 160.225  -1.412  1.00  0.00    -0.225 NA
ATOM     14  H   UNL     1     -37.951 159.210  -1.365  1.00  0.00    +0.137 HD
ATOM     15  H   UNL     1     -37.117 160.607  -0.834  1.00  0.00    +0.137 HD
ENDBRANCH  10  13
ENDBRANCH   6  10
ENDBRANCH   1   3
BRANCH   1  16
ATOM     16  C   UNL     1     -37.461 157.412   3.712  1.00  0.00    +0.229 A 
ATOM     17  N   UNL     1     -37.474 158.448   4.560  1.00  0.00    -0.221 NA
ATOM     18  N   UNL     1     -36.717 156.312   3.907  1.00  0.00    -0.195 NA
ATOM     19  C   UNL     1     -36.680 158.363   5.638  1.00  0.00    +0.119 A 
ATOM     20  C   UNL     1     -35.937 156.239   5.002  1.00  0.00    +0.138 A 
ATOM     21  C   UNL     1     -35.887 157.278   5.910  1.00  0.00    +0.067 A 
BRANCH  20  22
ATOM     22  N   UNL     1     -35.130 155.082   5.215  1.00  0.00    -0.329 N 
ATOM     23  C   UNL     1     -33.892 155.429   5.920  1.00  0.00    +0.152 C 
BRANCH  22  24
ATOM     24  C   UNL     1     -35.692 153.789   5.472  1.00  0.00    +0.044 A 
ATOM     25  C   UNL     1     -37.106 153.593   5.693  1.00  0.00    +0.027 A 
ATOM     26  C   UNL     1     -34.796 152.681   5.547  1.00  0.00    +0.057 A 
ATOM     27  C   UNL     1     -37.729 152.353   5.975  1.00  0.00    +0.014 A 
ATOM     28  C   UNL     1     -35.384 151.436   5.825  1.00  0.00    +0.095 A 
ATOM     29  C   UNL     1     -36.803 151.321   6.025  1.00  0.00    +0.023 A 
ATOM     30  N   UNL     1     -34.819 150.225   5.956  1.00  0.00    -0.173 NA
ATOM     31  C   UNL     1     -37.076 149.997   6.277  1.00  0.00    +0.043 A 
ATOM     32  N   UNL     1     -35.845 149.388   6.211  1.00  0.00    -0.272 N 
ATOM     33  C   UNL     1     -38.331 149.261   6.561  1.00  0.00    +0.067 C 
ATOM     34  C   UNL     1     -35.564 147.983   6.394  1.00  0.00    +0.174 C 
ENDBRANCH  22  24
ENDBRANCH  20  22
ENDBRANCH   1  16
TORSDOF 6
ENDMDL
MODEL 5
REMARK VINA RESULT:    -9.604      3.787      6.762
REMARK INTER + INTRA:         -12.933
REMARK INTER:                 -13.614
REMARK INTRA:                   0.681
REMARK UNBOUND:                -0.242
REMARK SMILES Cc1ccc(Nc2nccc(N(C)c3ccc4c(C)n(C)nc4c3)n2)cc1S(N)(=O)=O
REMARK SMILES IDX 6 1 5 3 2 4 3 5 27 6 4 7 26 8 1 9 28 10 30 11 31 12 29 13
REMARK SMILES IDX 7 16 8 17 25 18 9 19 11 20 10 21 12 22 13 23 14 24 15 25
REMARK SMILES IDX 24 26 16 27 23 28 17 29 22 30 18 31 20 32 19 33 21 34
REMARK H PARENT 6 2 29 14 29 15
ROOT
ATOM      1  N   UNL     1     -39.669 161.828  -1.416  1.00  0.00    -0.324 N 
ATOM      2  H   UNL     1     -39.398 162.758  -1.126  1.00  0.00    +0.170 HD
ENDROOT
BRANCH   1   3
ATOM      3  C   UNL     1     -40.184 160.973  -0.439  1.00  0.00    +0.042 A 
ATOM      4  C   UNL     1     -41.107 159.195   1.597  1.00  0.00    -0.031 A 
ATOM      5  C   UNL     1     -41.996 160.000   0.871  1.00  0.00    +0.007 A 
ATOM      6  C   UNL     1     -39.739 159.300   1.298  1.00  0.00    +0.087 A 
ATOM      7  C   UNL     1     -41.540 160.869  -0.129  1.00  0.00    +0.026 A 
ATOM      8  C   UNL     1     -39.291 160.180   0.297  1.00  0.00    +0.048 A 
ATOM      9  C   UNL     1     -41.662 158.301   2.669  1.00  0.00    +0.046 C 
BRANCH   6  10
ATOM     10  S   UNL     1     -38.506 158.367   2.175  1.00  0.00    +0.238 S 
ATOM     11  O   UNL     1     -38.515 158.731   3.571  1.00  0.00    -0.207 OA
ATOM     12  O   UNL     1     -37.285 158.338   1.404  1.00  0.00    -0.207 OA
BRANCH  10  13
ATOM     13  N   UNL     1     -39.112 156.802   2.087  1.00  0.00    -0.225 NA
ATOM     14  H   UNL     1     -39.656 156.688   1.232  1.00  0.00    +0.137 HD
ATOM     15  H   UNL     1     -39.632 156.588   2.940  1.00  0.00    +0.137 HD
ENDBRANCH  10  13
ENDBRANCH   6  10
ENDBRANCH   1   3
BRANCH   1  16
ATOM     16  C   UNL     1     -39.340 161.683  -2.760  1.00  0.00    +0.229 A 
ATOM     17  N   UNL     1     -39.377 160.497  -3.381  1.00  0.00    -0.221 NA
ATOM     18  N   UNL     1     -38.984 162.822  -3.374  1.00  0.00    -0.195 NA
ATOM     19  C   UNL     1     -39.018 160.474  -4.674  1.00  0.00    +0.119 A 
ATOM     20  C   UNL     1     -38.641 162.782  -4.676  1.00  0.00    +0.138 A 
ATOM     21  C   UNL     1     -38.640 161.591  -5.374  1.00  0.00    +0.067 A 
BRANCH  20  22
ATOM     22  N   UNL     1     -38.248 163.983  -5.337  1.00  0.00    -0.329 N 
ATOM     23  C   UNL     1     -37.247 164.711  -4.550  1.00  0.00    +0.152 C 
BRANCH  22  24
ATOM     24  C   UNL     1     -38.161 164.083  -6.763  1.00  0.00    +0.044 A 
ATOM     25  C   UNL     1     -38.003 162.922  -7.609  1.00  0.00    +0.027 A 
ATOM     26  C   UNL     1     -38.195 165.388  -7.339  1.00  0.00    +0.057 A 
ATOM     27  C   UNL     1     -37.887 162.944  -9.020  1.00  0.00    +0.014 A 
ATOM     28  C   UNL     1     -38.082 165.443  -8.738  1.00  0.00    +0.095 A 
ATOM     29  C   UNL     1     -37.935 164.241  -9.512  1.00  0.00    +0.023 A 
ATOM     30  N   UNL     1     -38.080 166.502  -9.562  1.00  0.00    -0.173 NA
ATOM     31  C   UNL     1     -37.849 164.611 -10.833  1.00  0.00    +0.043 A 
ATOM     32  N   UNL     1     -37.955 165.982 -10.800  1.00  0.00    -0.272 N 
ATOM     33  C   UNL     1     -37.689 163.840 -12.090  1.00  0.00    +0.067 C 
ATOM     34  C   UNL     1     -37.932 166.879 -11.931  1.00  0.00    +0.174 C 
ENDBRANCH  22  24
ENDBRANCH  20  22
ENDBRANCH   1  16
TORSDOF 6
ENDMDL
MODEL 6
REMARK VINA RESULT:    -9.089      7.231     11.359
REMARK INTER + INTRA:         -12.252
REMARK INTER:                 -11.884
REMARK INTRA:                  -0.369
REMARK UNBOUND:                -0.242
REMARK SMILES Cc1ccc(Nc2nccc(N(C)c3ccc4c(C)n(C)nc4c3)n2)cc1S(N)(=O)=O
REMARK SMILES IDX 6 1 5 3 2 4 3 5 27 6 4 7 26 8 1 9 28 10 30 11 31 12 29 13
REMARK SMILES IDX 7 16 8 17 25 18 9 19 11 20 10 21 12 22 13 23 14 24 15 25
REMARK SMILES IDX 24 26 16 27 23 28 17 29 22 30 18 31 20 32 19 33 21 34
REMARK H PARENT 6 2 29 14 29 15
ROOT
ATOM      1  N   UNL     1     -34.349 148.872   2.948  1.00  0.00    -0.324 N 
ATOM      2  H   UNL     1     -33.603 149.523   3.148  1.00  0.00    +0.170 HD
ENDROOT
BRANCH   1   3
ATOM      3  C   UNL     1     -34.277 148.159   1.749  1.00  0.00    +0.042 A 
ATOM      4  C   UNL     1     -34.205 146.801  -0.763  1.00  0.00    -0.031 A 
ATOM      5  C   UNL     1     -33.437 146.365   0.326  1.00  0.00    +0.007 A 
ATOM      6  C   UNL     1     -35.007 147.940  -0.582  1.00  0.00    +0.087 A 
ATOM      7  C   UNL     1     -33.477 147.033   1.557  1.00  0.00    +0.026 A 
ATOM      8  C   UNL     1     -35.034 148.606   0.657  1.00  0.00    +0.048 A 
ATOM      9  C   UNL     1     -34.099 146.051  -2.059  1.00  0.00    +0.046 C 
BRANCH   6  10
ATOM     10  S   UNL     1     -35.995 148.618  -1.895  1.00  0.00    +0.238 S 
ATOM     11  O   UNL     1     -37.391 148.351  -1.647  1.00  0.00    -0.207 OA
ATOM     12  O   UNL     1     -35.378 148.319  -3.167  1.00  0.00    -0.207 OA
BRANCH  10  13
ATOM     13  N   UNL     1     -35.782 150.272  -1.687  1.00  0.00    -0.225 NA
ATOM     14  H   UNL     1     -36.527 150.645  -1.100  1.00  0.00    +0.137 HD
ATOM     15  H   UNL     1     -35.707 150.723  -2.599  1.00  0.00    +0.137 HD
ENDBRANCH  10  13
ENDBRANCH   6  10
ENDBRANCH   1   3
BRANCH   1  16
ATOM     16  C   UNL     1     -35.295 148.973   3.964  1.00  0.00    +0.229 A 
ATOM     17  N   UNL     1     -36.321 148.121   4.072  1.00  0.00    -0.221 NA
ATOM     18  N   UNL     1     -35.091 149.990   4.816  1.00  0.00    -0.195 NA
ATOM     19  C   UNL     1     -37.184 148.329   5.080  1.00  0.00    +0.119 A 
ATOM     20  C   UNL     1     -35.959 150.175   5.830  1.00  0.00    +0.138 A 
ATOM     21  C   UNL     1     -37.050 149.344   5.991  1.00  0.00    +0.067 A 
BRANCH  20  22
ATOM     22  N   UNL     1     -35.762 151.260   6.735  1.00  0.00    -0.329 N 
ATOM     23  C   UNL     1     -35.245 150.781   8.021  1.00  0.00    +0.152 C 
BRANCH  22  24
ATOM     24  C   UNL     1     -35.343 152.558   6.299  1.00  0.00    +0.044 A 
ATOM     25  C   UNL     1     -33.971 153.000   6.402  1.00  0.00    +0.027 A 
ATOM     26  C   UNL     1     -36.342 153.440   5.790  1.00  0.00    +0.057 A 
ATOM     27  C   UNL     1     -33.487 154.273   6.016  1.00  0.00    +0.014 A 
ATOM     28  C   UNL     1     -35.894 154.712   5.398  1.00  0.00    +0.095 A 
ATOM     29  C   UNL     1     -34.508 155.075   5.523  1.00  0.00    +0.023 A 
ATOM     30  N   UNL     1     -36.577 155.749   4.887  1.00  0.00    -0.173 NA
ATOM     31  C   UNL     1     -34.378 156.364   5.066  1.00  0.00    +0.043 A 
ATOM     32  N   UNL     1     -35.654 156.710   4.686  1.00  0.00    -0.272 N 
ATOM     33  C   UNL     1     -33.219 157.281   4.944  1.00  0.00    +0.067 C 
ATOM     34  C   UNL     1     -36.077 157.972   4.123  1.00  0.00    +0.174 C 
ENDBRANCH  22  24
ENDBRANCH  20  22
ENDBRANCH   1  16
TORSDOF 6
ENDMDL
MODEL 7
REMARK VINA RESULT:    -9.007      7.867     11.379
REMARK INTER + INTRA:         -12.145
REMARK INTER:                 -12.002
REMARK INTRA:                  -0.143
REMARK UNBOUND:                -0.242
REMARK SMILES Cc1ccc(Nc2nccc(N(C)c3ccc4c(C)n(C)nc4c3)n2)cc1S(N)(=O)=O
REMARK SMILES IDX 6 1 5 3 2 4 3 5 27 6 4 7 26 8 1 9 28 10 30 11 31 12 29 13
REMARK SMILES IDX 7 16 8 17 25 18 9 19 11 20 10 21 12 22 13 23 14 24 15 25
REMARK SMILES IDX 24 26 16 27 23 28 17 29 22 30 18 31 20 32 19 33 21 34
REMARK H PARENT 6 2 29 14 29 15
ROOT
ATOM      1  N   UNL     1     -34.487 149.029   3.075  1.00  0.00    -0.324 N 
ATOM      2  H   UNL     1     -33.832 149.765   3.299  1.00  0.00    +0.170 HD
ENDROOT
BRANCH   1   3
ATOM      3  C   UNL     1     -34.299 148.343   1.872  1.00  0.00    +0.042 A 
ATOM      4  C   UNL     1     -33.999 147.031  -0.647  1.00  0.00    -0.031 A 
ATOM      5  C   UNL     1     -33.219 146.674   0.461  1.00  0.00    +0.007 A 
ATOM      6  C   UNL     1     -34.932 148.069  -0.481  1.00  0.00    +0.087 A 
ATOM      7  C   UNL     1     -33.370 147.317   1.696  1.00  0.00    +0.026 A 
ATOM      8  C   UNL     1     -35.071 148.713   0.762  1.00  0.00    +0.048 A 
ATOM      9  C   UNL     1     -33.771 146.313  -1.946  1.00  0.00    +0.046 C 
BRANCH   6  10
ATOM     10  S   UNL     1     -35.952 148.645  -1.817  1.00  0.00    +0.238 S 
ATOM     11  O   UNL     1     -37.341 148.402  -1.514  1.00  0.00    -0.207 OA
ATOM     12  O   UNL     1     -35.367 148.246  -3.077  1.00  0.00    -0.207 OA
BRANCH  10  13
ATOM     13  N   UNL     1     -35.733 150.309  -1.744  1.00  0.00    -0.225 NA
ATOM     14  H   UNL     1     -34.851 150.522  -1.278  1.00  0.00    +0.137 HD
ATOM     15  H   UNL     1     -36.548 150.742  -1.308  1.00  0.00    +0.137 HD
ENDBRANCH  10  13
ENDBRANCH   6  10
ENDBRANCH   1   3
BRANCH   1  16
ATOM     16  C   UNL     1     -35.463 149.003   4.067  1.00  0.00    +0.229 A 
ATOM     17  N   UNL     1     -36.437 148.085   4.088  1.00  0.00    -0.221 NA
ATOM     18  N   UNL     1     -35.343 149.968   4.992  1.00  0.00    -0.195 NA
ATOM     19  C   UNL     1     -37.335 148.170   5.082  1.00  0.00    +0.119 A 
ATOM     20  C   UNL     1     -36.245 150.029   5.990  1.00  0.00    +0.138 A 
ATOM     21  C   UNL     1     -37.287 149.126   6.063  1.00  0.00    +0.067 A 
BRANCH  20  22
ATOM     22  N   UNL     1     -36.139 151.059   6.972  1.00  0.00    -0.329 N 
ATOM     23  C   UNL     1     -35.246 150.652   8.062  1.00  0.00    +0.152 C 
BRANCH  22  24
ATOM     24  C   UNL     1     -36.174 152.450   6.635  1.00  0.00    +0.044 A 
ATOM     25  C   UNL     1     -37.400 153.215   6.640  1.00  0.00    +0.027 A 
ATOM     26  C   UNL     1     -34.949 153.067   6.244  1.00  0.00    +0.057 A 
ATOM     27  C   UNL     1     -37.517 154.583   6.297  1.00  0.00    +0.014 A 
ATOM     28  C   UNL     1     -35.030 154.426   5.897  1.00  0.00    +0.095 A 
ATOM     29  C   UNL     1     -36.288 155.120   5.936  1.00  0.00    +0.023 A 
ATOM     30  N   UNL     1     -34.070 155.274   5.495  1.00  0.00    -0.173 NA
ATOM     31  C   UNL     1     -36.054 156.418   5.547  1.00  0.00    +0.043 A 
ATOM     32  N   UNL     1     -34.700 156.451   5.307  1.00  0.00    -0.272 N 
ATOM     33  C   UNL     1     -36.935 157.599   5.387  1.00  0.00    +0.067 C 
ATOM     34  C   UNL     1     -33.925 157.591   4.876  1.00  0.00    +0.174 C 
ENDBRANCH  22  24
ENDBRANCH  20  22
ENDBRANCH   1  16
TORSDOF 6
ENDMDL
MODEL 8
REMARK VINA RESULT:    -8.945      4.854     10.315
REMARK INTER + INTRA:         -12.063
REMARK INTER:                 -11.833
REMARK INTRA:                  -0.230
REMARK UNBOUND:                -0.242
REMARK SMILES Cc1ccc(Nc2nccc(N(C)c3ccc4c(C)n(C)nc4c3)n2)cc1S(N)(=O)=O
REMARK SMILES IDX 6 1 5 3 2 4 3 5 27 6 4 7 26 8 1 9 28 10 30 11 31 12 29 13
REMARK SMILES IDX 7 16 8 17 25 18 9 19 11 20 10 21 12 22 13 23 14 24 15 25
REMARK SMILES IDX 24 26 16 27 23 28 17 29 22 30 18 31 20 32 19 33 21 34
REMARK H PARENT 6 2 29 14 29 15
ROOT
ATOM      1  N   UNL     1     -39.663 161.430  -1.640  1.00  0.00    -0.324 N 
ATOM      2  H   UNL     1     -40.604 161.545  -1.293  1.00  0.00    +0.170 HD
ENDROOT
BRANCH   1   3
ATOM      3  C   UNL     1     -39.187 162.388  -2.540  1.00  0.00    +0.042 A 
ATOM      4  C   UNL     1     -38.227 164.251  -4.480  1.00  0.00    -0.031 A 
ATOM      5  C   UNL     1     -38.523 164.648  -3.168  1.00  0.00    +0.007 A 
ATOM      6  C   UNL     1     -38.430 162.902  -4.815  1.00  0.00    +0.087 A 
ATOM      7  C   UNL     1     -38.991 163.731  -2.219  1.00  0.00    +0.026 A 
ATOM      8  C   UNL     1     -38.907 161.991  -3.855  1.00  0.00    +0.048 A 
ATOM      9  C   UNL     1     -37.747 165.290  -5.452  1.00  0.00    +0.046 C 
BRANCH   6  10
ATOM     10  S   UNL     1     -38.133 162.281  -6.453  1.00  0.00    +0.238 S 
ATOM     11  O   UNL     1     -38.537 163.262  -7.431  1.00  0.00    -0.207 OA
ATOM     12  O   UNL     1     -38.567 160.905  -6.533  1.00  0.00    -0.207 OA
BRANCH  10  13
ATOM     13  N   UNL     1     -36.455 162.212  -6.513  1.00  0.00    -0.225 NA
ATOM     14  H   UNL     1     -36.122 161.416  -5.969  1.00  0.00    +0.137 HD
ATOM     15  H   UNL     1     -36.066 163.108  -6.217  1.00  0.00    +0.137 HD
ENDBRANCH  10  13
ENDBRANCH   6  10
ENDBRANCH   1   3
BRANCH   1  16
ATOM     16  C   UNL     1     -39.157 160.237  -1.133  1.00  0.00    +0.229 A 
ATOM     17  N   UNL     1     -38.536 159.338  -1.906  1.00  0.00    -0.221 NA
ATOM     18  N   UNL     1     -39.345 160.068   0.185  1.00  0.00    -0.195 NA
ATOM     19  C   UNL     1     -38.108 158.214  -1.311  1.00  0.00    +0.119 A 
ATOM     20  C   UNL     1     -38.896 158.940   0.768  1.00  0.00    +0.138 A 
ATOM     21  C   UNL     1     -38.263 157.961   0.028  1.00  0.00    +0.067 A 
BRANCH  20  22
ATOM     22  N   UNL     1     -39.102 158.740   2.165  1.00  0.00    -0.329 N 
ATOM     23  C   UNL     1     -40.529 158.588   2.468  1.00  0.00    +0.152 C 
BRANCH  22  24
ATOM     24  C   UNL     1     -38.176 158.015   2.983  1.00  0.00    +0.044 A 
ATOM     25  C   UNL     1     -36.944 158.602   3.458  1.00  0.00    +0.027 A 
ATOM     26  C   UNL     1     -38.485 156.657   3.290  1.00  0.00    +0.057 A 
ATOM     27  C   UNL     1     -35.971 157.943   4.248  1.00  0.00    +0.014 A 
ATOM     28  C   UNL     1     -37.539 155.975   4.072  1.00  0.00    +0.095 A 
ATOM     29  C   UNL     1     -36.339 156.632   4.514  1.00  0.00    +0.023 A 
ATOM     30  N   UNL     1     -37.542 154.710   4.522  1.00  0.00    -0.173 NA
ATOM     31  C   UNL     1     -35.619 155.721   5.251  1.00  0.00    +0.043 A 
ATOM     32  N   UNL     1     -36.400 154.588   5.229  1.00  0.00    -0.272 N 
ATOM     33  C   UNL     1     -34.318 155.796   5.957  1.00  0.00    +0.067 C 
ATOM     34  C   UNL     1     -36.108 153.324   5.864  1.00  0.00    +0.174 C 
ENDBRANCH  22  24
ENDBRANCH  20  22
ENDBRANCH   1  16
TORSDOF 6
ENDMDL
MODEL 9
REMARK VINA RESULT:    -8.801      8.872     11.967
REMARK INTER + INTRA:         -11.872
REMARK INTER:                 -11.099
REMARK INTRA:                  -0.774
REMARK UNBOUND:                -0.242
REMARK SMILES Cc1ccc(Nc2nccc(N(C)c3ccc4c(C)n(C)nc4c3)n2)cc1S(N)(=O)=O
REMARK SMILES IDX 6 1 5 3 2 4 3 5 27 6 4 7 26 8 1 9 28 10 30 11 31 12 29 13
REMARK SMILES IDX 7 16 8 17 25 18 9 19 11 20 10 21 12 22 13 23 14 24 15 25
REMARK SMILES IDX 24 26 16 27 23 28 17 29 22 30 18 31 20 32 19 33 21 34
REMARK H PARENT 6 2 29 14 29 15
ROOT
ATOM      1  N   UNL     1     -36.976 149.106   3.131  1.00  0.00    -0.324 N 
ATOM      2  H   UNL     1     -37.508 149.948   3.300  1.00  0.00    +0.170 HD
ENDROOT
BRANCH   1   3
ATOM      3  C   UNL     1     -37.289 148.367   1.987  1.00  0.00    +0.042 A 
ATOM      4  C   UNL     1     -37.828 146.921  -0.416  1.00  0.00    -0.031 A 
ATOM      5  C   UNL     1     -38.454 146.589   0.793  1.00  0.00    +0.007 A 
ATOM      6  C   UNL     1     -36.913 147.986  -0.406  1.00  0.00    +0.087 A 
ATOM      7  C   UNL     1     -38.190 147.301   1.969  1.00  0.00    +0.026 A 
ATOM      8  C   UNL     1     -36.650 148.691   0.782  1.00  0.00    +0.048 A 
ATOM      9  C   UNL     1     -38.143 146.102  -1.635  1.00  0.00    +0.046 C 
BRANCH   6  10
ATOM     10  S   UNL     1     -36.021 148.480  -1.862  1.00  0.00    +0.238 S 
ATOM     11  O   UNL     1     -36.948 148.878  -2.894  1.00  0.00    -0.207 OA
ATOM     12  O   UNL     1     -34.956 147.538  -2.118  1.00  0.00    -0.207 OA
BRANCH  10  13
ATOM     13  N   UNL     1     -35.248 149.882  -1.351  1.00  0.00    -0.225 NA
ATOM     14  H   UNL     1     -35.498 150.082  -0.383  1.00  0.00    +0.137 HD
ATOM     15  H   UNL     1     -35.457 150.643  -1.999  1.00  0.00    +0.137 HD
ENDBRANCH  10  13
ENDBRANCH   6  10
ENDBRANCH   1   3
BRANCH   1  16
ATOM     16  C   UNL     1     -36.113 148.916   4.205  1.00  0.00    +0.229 A 
ATOM     17  N   UNL     1     -35.316 147.845   4.302  1.00  0.00    -0.221 NA
ATOM     18  N   UNL     1     -36.149 149.890   5.128  1.00  0.00    -0.195 NA
ATOM     19  C   UNL     1     -34.541 147.757   5.394  1.00  0.00    +0.119 A 
ATOM     20  C   UNL     1     -35.353 149.793   6.210  1.00  0.00    +0.138 A 
ATOM     21  C   UNL     1     -34.520 148.706   6.384  1.00  0.00    +0.067 A 
BRANCH  20  22
ATOM     22  N   UNL     1     -35.391 150.814   7.206  1.00  0.00    -0.329 N 
ATOM     23  C   UNL     1     -34.964 150.291   8.508  1.00  0.00    +0.152 C 
BRANCH  22  24
ATOM     24  C   UNL     1     -35.088 152.183   6.915  1.00  0.00    +0.044 A 
ATOM     25  C   UNL     1     -33.871 152.577   6.243  1.00  0.00    +0.027 A 
ATOM     26  C   UNL     1     -36.015 153.174   7.352  1.00  0.00    +0.057 A 
ATOM     27  C   UNL     1     -33.491 153.907   5.943  1.00  0.00    +0.014 A 
ATOM     28  C   UNL     1     -35.667 154.506   7.071  1.00  0.00    +0.095 A 
ATOM     29  C   UNL     1     -34.441 154.817   6.389  1.00  0.00    +0.023 A 
ATOM     30  N   UNL     1     -36.321 155.646   7.346  1.00  0.00    -0.173 NA
ATOM     31  C   UNL     1     -34.378 156.184   6.258  1.00  0.00    +0.043 A 
ATOM     32  N   UNL     1     -35.542 156.625   6.843  1.00  0.00    -0.272 N 
ATOM     33  C   UNL     1     -33.376 157.096   5.658  1.00  0.00    +0.067 C 
ATOM     34  C   UNL     1     -35.982 157.995   6.970  1.00  0.00    +0.174 C 
ENDBRANCH  22  24
ENDBRANCH  20  22
ENDBRANCH   1  16
TORSDOF 6
ENDMDL
MODEL 10
REMARK VINA RESULT:    -8.769      7.535     11.044
REMARK INTER + INTRA:         -11.830
REMARK INTER:                 -11.315
REMARK INTRA:                  -0.515
REMARK UNBOUND:                -0.242
REMARK SMILES Cc1ccc(Nc2nccc(N(C)c3ccc4c(C)n(C)nc4c3)n2)cc1S(N)(=O)=O
REMARK SMILES IDX 6 1 5 3 2 4 3 5 27 6 4 7 26 8 1 9 28 10 30 11 31 12 29 13
REMARK SMILES IDX 7 16 8 17 25 18 9 19 11 20 10 21 12 22 13 23 14 24 15 25
REMARK SMILES IDX 24 26 16 27 23 28 17 29 22 30 18 31 20 32 19 33 21 34
REMARK H PARENT 6 2 29 14 29 15
ROOT
ATOM      1  N   UNL     1     -35.556 152.378   6.555  1.00  0.00    -0.324 N 
ATOM      2  H   UNL     1     -35.523 152.191   7.548  1.00  0.00    +0.170 HD
ENDROOT
BRANCH   1   3
ATOM      3  C   UNL     1     -35.074 153.614   6.116  1.00  0.00    +0.042 A 
ATOM      4  C   UNL     1     -34.218 156.182   5.207  1.00  0.00    -0.031 A 
ATOM      5  C   UNL     1     -33.304 155.237   5.692  1.00  0.00    +0.007 A 
ATOM      6  C   UNL     1     -35.577 155.829   5.192  1.00  0.00    +0.087 A 
ATOM      7  C   UNL     1     -33.727 153.977   6.135  1.00  0.00    +0.026 A 
ATOM      8  C   UNL     1     -35.991 154.563   5.645  1.00  0.00    +0.048 A 
ATOM      9  C   UNL     1     -33.699 157.521   4.766  1.00  0.00    +0.046 C 
BRANCH   6  10
ATOM     10  S   UNL     1     -36.840 156.951   4.641  1.00  0.00    +0.238 S 
ATOM     11  O   UNL     1     -36.669 157.231   3.235  1.00  0.00    -0.207 OA
ATOM     12  O   UNL     1     -37.004 158.008   5.612  1.00  0.00    -0.207 OA
BRANCH  10  13
ATOM     13  N   UNL     1     -38.232 156.019   4.774  1.00  0.00    -0.225 NA
ATOM     14  H   UNL     1     -38.033 155.058   4.497  1.00  0.00    +0.137 HD
ATOM     15  H   UNL     1     -38.987 156.455   4.243  1.00  0.00    +0.137 HD
ENDBRANCH  10  13
ENDBRANCH   6  10
ENDBRANCH   1   3
BRANCH   1  16
ATOM     16  C   UNL     1     -36.184 151.303   5.934  1.00  0.00    +0.229 A 
ATOM     17  N   UNL     1     -37.516 151.219   5.825  1.00  0.00    -0.221 NA
ATOM     18  N   UNL     1     -35.348 150.367   5.459  1.00  0.00    -0.195 NA
ATOM     19  C   UNL     1     -38.011 150.126   5.224  1.00  0.00    +0.119 A 
ATOM     20  C   UNL     1     -35.862 149.284   4.845  1.00  0.00    +0.138 A 
ATOM     21  C   UNL     1     -37.227 149.123   4.714  1.00  0.00    +0.067 A 
BRANCH  20  22
ATOM     22  N   UNL     1     -34.986 148.274   4.348  1.00  0.00    -0.329 N 
ATOM     23  C   UNL     1     -34.875 147.163   5.298  1.00  0.00    +0.152 C 
BRANCH  22  24
ATOM     24  C   UNL     1     -34.887 147.960   2.954  1.00  0.00    +0.044 A 
ATOM     25  C   UNL     1     -34.090 146.857   2.467  1.00  0.00    +0.027 A 
ATOM     26  C   UNL     1     -35.577 148.804   2.034  1.00  0.00    +0.057 A 
ATOM     27  C   UNL     1     -33.925 146.500   1.107  1.00  0.00    +0.014 A 
ATOM     28  C   UNL     1     -35.433 148.476   0.676  1.00  0.00    +0.095 A 
ATOM     29  C   UNL     1     -34.628 147.357   0.270  1.00  0.00    +0.023 A 
ATOM     30  N   UNL     1     -35.950 149.066  -0.414  1.00  0.00    -0.173 NA
ATOM     31  C   UNL     1     -34.679 147.289  -1.102  1.00  0.00    +0.043 A 
ATOM     32  N   UNL     1     -35.499 148.336  -1.453  1.00  0.00    -0.272 N 
ATOM     33  C   UNL     1     -34.065 146.372  -2.091  1.00  0.00    +0.067 C 
ATOM     34  C   UNL     1     -35.894 148.714  -2.790  1.00  0.00    +0.174 C 
ENDBRANCH  22  24
ENDBRANCH  20  22
ENDBRANCH   1  16
TORSDOF 6
ENDMDL
