REMARK SMILES Cc1ccc(C(=O)Nc2ccc(CN3CCN(C)CC3)c(C(F)(F)F)c2)cc1C#Cc1cnc2cccnn12
REMARK SMILES IDX 9 1 10 2 11 3 12 4 21 5 26 6 8 7 6 8 7 9 5 11 2 12 3 13
REMARK SMILES IDX 28 14 4 15 27 16 29 17 1 18 30 19 31 20 32 21 39 22 33 23
REMARK SMILES IDX 38 24 34 25 37 26 35 27 36 28 22 29 23 30 24 31 25 32 13 33
REMARK SMILES IDX 14 34 15 35 20 36 16 37 19 38 17 39 18 40
REMARK H PARENT 8 10
ROOT
ATOM      1  C   UNL     1      -0.973  -1.661  -0.079  1.00  0.00    +0.042 A 
ATOM      2  C   UNL     1      -1.167  -1.211  -1.386  1.00  0.00    +0.026 A 
ATOM      3  C   UNL     1      -2.439  -0.849  -1.834  1.00  0.00    +0.008 A 
ATOM      4  C   UNL     1      -3.554  -0.928  -0.983  1.00  0.00    -0.022 A 
ATOM      5  C   UNL     1      -3.374  -1.392   0.340  1.00  0.00    +0.062 A 
ATOM      6  C   UNL     1      -2.075  -1.741   0.773  1.00  0.00    +0.039 A 
ENDROOT
BRANCH   1   7
ATOM      7  N   UNL     1       0.345  -1.995   0.297  1.00  0.00    -0.322 N 
ATOM      8  C   UNL     1       0.766  -2.531   1.501  1.00  0.00    +0.255 C 
ATOM      9  O   UNL     1       0.057  -2.877   2.438  1.00  0.00    -0.269 OA
ATOM     10  H   UNL     1       1.046  -1.888  -0.426  1.00  0.00    +0.170 HD
BRANCH   8  11
ATOM     11  C   UNL     1       2.237  -2.735   1.617  1.00  0.00    +0.041 A 
ATOM     12  C   UNL     1       5.003  -3.188   1.880  1.00  0.00    -0.035 A 
ATOM     13  C   UNL     1       4.076  -4.068   2.460  1.00  0.00    +0.005 A 
ATOM     14  C   UNL     1       4.529  -2.065   1.180  1.00  0.00    +0.029 A 
ATOM     15  C   UNL     1       2.704  -3.841   2.333  1.00  0.00    +0.014 A 
ATOM     16  C   UNL     1       3.152  -1.837   1.055  1.00  0.00    +0.031 A 
ATOM     17  C   UNL     1       5.426  -1.121   0.582  1.00  0.00    -0.060 C 
ATOM     18  C   UNL     1       6.475  -3.456   2.036  1.00  0.00    +0.045 C 
BRANCH  17  19
ATOM     19  C   UNL     1       6.163  -0.320   0.075  1.00  0.00    -0.040 C 
ATOM     20  C   UNL     1       7.025   0.634  -0.527  1.00  0.00    +0.135 A 
ATOM     21  C   UNL     1       8.402   0.667  -0.524  1.00  0.00    +0.151 A 
ATOM     22  N   UNL     1       6.637   1.739  -1.245  1.00  0.00    -0.205 N 
ATOM     23  N   UNL     1       8.877   1.755  -1.215  1.00  0.00    -0.234 NA
ATOM     24  N   UNL     1       5.348   2.122  -1.518  1.00  0.00    -0.174 NA
ATOM     25  C   UNL     1       7.802   2.387  -1.636  1.00  0.00    +0.154 A 
ATOM     26  C   UNL     1       5.286   3.214  -2.212  1.00  0.00    +0.134 C 
ATOM     27  C   UNL     1       7.662   3.572  -2.393  1.00  0.00    +0.051 C 
ATOM     28  C   UNL     1       6.436   4.015  -2.697  1.00  0.00    +0.026 C 
ENDBRANCH  17  19
ENDBRANCH   8  11
ENDBRANCH   1   7
BRANCH   5  29
ATOM     29  C   UNL     1      -4.514  -1.494   1.337  1.00  0.00    +0.416 C 
ATOM     30  F   UNL     1      -4.256  -2.391   2.336  1.00  0.00    -0.166 F 
ATOM     31  F   UNL     1      -5.691  -1.919   0.796  1.00  0.00    -0.166 F 
ATOM     32  F   UNL     1      -4.778  -0.320   1.973  1.00  0.00    -0.166 F 
ENDBRANCH   5  29
BRANCH   4  33
ATOM     33  C   UNL     1      -4.909  -0.502  -1.518  1.00  0.00    +0.120 C 
BRANCH  33  34
ATOM     34  N   UNL     1      -5.456   0.649  -0.799  1.00  0.00    -0.297 NA
ATOM     35  C   UNL     1      -6.875   0.863  -1.113  1.00  0.00    +0.100 C 
ATOM     36  C   UNL     1      -4.686   1.889  -1.033  1.00  0.00    +0.100 C 
ATOM     37  C   UNL     1      -7.509   1.999  -0.266  1.00  0.00    +0.099 C 
ATOM     38  C   UNL     1      -5.498   3.201  -0.858  1.00  0.00    +0.099 C 
ATOM     39  N   UNL     1      -6.625   3.131   0.088  1.00  0.00    -0.304 NA
ATOM     40  C   UNL     1      -6.138   2.998   1.463  1.00  0.00    +0.105 C 
ENDBRANCH  33  34
ENDBRANCH   4  33
TORSDOF 6
