MODEL 1
REMARK VINA RESULT:   -10.224      0.000      0.000
REMARK INTER + INTRA:         -14.572
REMARK INTER:                 -13.810
REMARK INTRA:                  -0.762
REMARK UNBOUND:                -0.762
REMARK SMILES Cc1ccc(C(=O)Nc2ccc(CN3CCN(C)CC3)c(C(F)(F)F)c2)cc1C#Cc1cnc2cccnn12
REMARK SMILES IDX 9 1 10 2 11 3 12 4 21 5 26 6 8 7 6 8 7 9 5 11 2 12 3 13
REMARK SMILES IDX 28 14 4 15 27 16 29 17 1 18 30 19 31 20 32 21 39 22 33 23
REMARK SMILES IDX 38 24 34 25 37 26 35 27 36 28 22 29 23 30 24 31 25 32 13 33
REMARK SMILES IDX 14 34 15 35 20 36 16 37 19 38 17 39 18 40
REMARK H PARENT 8 10
ROOT
ATOM      1  C   UNL     1      -5.136  -0.775 -16.664  1.00  0.00    +0.042 A 
ATOM      2  C   UNL     1      -5.723  -1.887 -16.057  1.00  0.00    +0.026 A 
ATOM      3  C   UNL     1      -5.004  -3.072 -15.892  1.00  0.00    +0.008 A 
ATOM      4  C   UNL     1      -3.673  -3.176 -16.330  1.00  0.00    -0.022 A 
ATOM      5  C   UNL     1      -3.069  -2.062 -16.955  1.00  0.00    +0.062 A 
ATOM      6  C   UNL     1      -3.814  -0.870 -17.100  1.00  0.00    +0.039 A 
ENDROOT
BRANCH   1   7
ATOM      7  N   UNL     1      -5.928   0.386 -16.781  1.00  0.00    -0.322 N 
ATOM      8  C   UNL     1      -5.514   1.702 -16.672  1.00  0.00    +0.255 C 
ATOM      9  O   UNL     1      -4.365   2.099 -16.519  1.00  0.00    -0.269 OA
ATOM     10  H   UNL     1      -6.895   0.231 -17.040  1.00  0.00    +0.170 HD
BRANCH   8  11
ATOM     11  C   UNL     1      -6.598   2.714 -16.802  1.00  0.00    +0.041 A 
ATOM     12  C   UNL     1      -8.603   4.668 -17.103  1.00  0.00    -0.035 A 
ATOM     13  C   UNL     1      -7.414   4.742 -17.846  1.00  0.00    +0.005 A 
ATOM     14  C   UNL     1      -8.770   3.611 -16.191  1.00  0.00    +0.029 A 
ATOM     15  C   UNL     1      -6.418   3.776 -17.694  1.00  0.00    +0.014 A 
ATOM     16  C   UNL     1      -7.769   2.643 -16.037  1.00  0.00    +0.031 A 
ATOM     17  C   UNL     1      -9.953   3.491 -15.391  1.00  0.00    -0.060 C 
ATOM     18  C   UNL     1      -9.657   5.725 -17.286  1.00  0.00    +0.045 C 
BRANCH  17  19
ATOM     19  C   UNL     1     -10.937   3.376 -14.713  1.00  0.00    -0.040 C 
ATOM     20  C   UNL     1     -12.094   3.232 -13.903  1.00  0.00    +0.135 A 
ATOM     21  C   UNL     1     -13.296   3.898 -14.000  1.00  0.00    +0.151 A 
ATOM     22  N   UNL     1     -12.237   2.378 -12.837  1.00  0.00    -0.205 N 
ATOM     23  N   UNL     1     -14.175   3.485 -13.029  1.00  0.00    -0.234 NA
ATOM     24  N   UNL     1     -11.294   1.503 -12.361  1.00  0.00    -0.174 NA
ATOM     25  C   UNL     1     -13.520   2.576 -12.340  1.00  0.00    +0.154 A 
ATOM     26  C   UNL     1     -11.708   0.828 -11.336  1.00  0.00    +0.134 C 
ATOM     27  C   UNL     1     -13.908   1.804 -11.221  1.00  0.00    +0.051 C 
ATOM     28  C   UNL     1     -13.041   0.931 -10.695  1.00  0.00    +0.026 C 
ENDBRANCH  17  19
ENDBRANCH   8  11
ENDBRANCH   1   7
BRANCH   5  29
ATOM     29  C   UNL     1      -1.632  -2.073 -17.444  1.00  0.00    +0.416 C 
ATOM     30  F   UNL     1      -1.321  -0.963 -18.179  1.00  0.00    -0.166 F 
ATOM     31  F   UNL     1      -1.331  -3.118 -18.266  1.00  0.00    -0.166 F 
ATOM     32  F   UNL     1      -0.721  -2.096 -16.433  1.00  0.00    -0.166 F 
ENDBRANCH   5  29
BRANCH   4  33
ATOM     33  C   UNL     1      -2.933  -4.482 -16.105  1.00  0.00    +0.120 C 
BRANCH  33  34
ATOM     34  N   UNL     1      -3.565  -5.607 -16.796  1.00  0.00    -0.297 NA
ATOM     35  C   UNL     1      -4.109  -6.591 -15.850  1.00  0.00    +0.100 C 
ATOM     36  C   UNL     1      -2.660  -6.268 -17.760  1.00  0.00    +0.100 C 
ATOM     37  C   UNL     1      -4.894  -7.728 -16.558  1.00  0.00    +0.099 C 
ATOM     38  C   UNL     1      -2.988  -7.759 -18.043  1.00  0.00    +0.099 C 
ATOM     39  N   UNL     1      -4.403  -8.139 -17.891  1.00  0.00    -0.304 NA
ATOM     40  C   UNL     1      -5.216  -7.538 -18.951  1.00  0.00    +0.105 C 
ENDBRANCH  33  34
ENDBRANCH   4  33
TORSDOF 6
ENDMDL
MODEL 2
REMARK VINA RESULT:   -10.208      6.417     10.953
REMARK INTER + INTRA:         -14.551
REMARK INTER:                 -13.998
REMARK INTRA:                  -0.552
REMARK UNBOUND:                -0.762
REMARK SMILES Cc1ccc(C(=O)Nc2ccc(CN3CCN(C)CC3)c(C(F)(F)F)c2)cc1C#Cc1cnc2cccnn12
REMARK SMILES IDX 9 1 10 2 11 3 12 4 21 5 26 6 8 7 6 8 7 9 5 11 2 12 3 13
REMARK SMILES IDX 28 14 4 15 27 16 29 17 1 18 30 19 31 20 32 21 39 22 33 23
REMARK SMILES IDX 38 24 34 25 37 26 35 27 36 28 22 29 23 30 24 31 25 32 13 33
REMARK SMILES IDX 14 34 15 35 20 36 16 37 19 38 17 39 18 40
REMARK H PARENT 8 10
ROOT
ATOM      1  C   UNL     1     -11.945   1.145 -11.590  1.00  0.00    +0.042 A 
ATOM      2  C   UNL     1     -13.287   1.505 -11.719  1.00  0.00    +0.026 A 
ATOM      3  C   UNL     1     -14.169   1.366 -10.645  1.00  0.00    +0.008 A 
ATOM      4  C   UNL     1     -13.729   0.861  -9.410  1.00  0.00    -0.022 A 
ATOM      5  C   UNL     1     -12.375   0.483  -9.268  1.00  0.00    +0.062 A 
ATOM      6  C   UNL     1     -11.500   0.644 -10.366  1.00  0.00    +0.039 A 
ENDROOT
BRANCH   1   7
ATOM      7  N   UNL     1     -11.119   1.328 -12.718  1.00  0.00    -0.322 N 
ATOM      8  C   UNL     1     -10.514   0.349 -13.486  1.00  0.00    +0.255 C 
ATOM      9  O   UNL     1     -10.643  -0.863 -13.364  1.00  0.00    -0.269 OA
ATOM     10  H   UNL     1     -11.016   2.285 -13.034  1.00  0.00    +0.170 HD
BRANCH   8  11
ATOM     11  C   UNL     1      -9.660   0.859 -14.595  1.00  0.00    +0.041 A 
ATOM     12  C   UNL     1      -8.009   1.750 -16.694  1.00  0.00    -0.035 A 
ATOM     13  C   UNL     1      -7.899   0.439 -16.205  1.00  0.00    +0.005 A 
ATOM     14  C   UNL     1      -8.945   2.618 -16.106  1.00  0.00    +0.029 A 
ATOM     15  C   UNL     1      -8.715  -0.002 -15.161  1.00  0.00    +0.014 A 
ATOM     16  C   UNL     1      -9.762   2.176 -15.057  1.00  0.00    +0.031 A 
ATOM     17  C   UNL     1      -9.090   3.973 -16.550  1.00  0.00    -0.060 C 
ATOM     18  C   UNL     1      -7.114   2.198 -17.817  1.00  0.00    +0.045 C 
BRANCH  17  19
ATOM     19  C   UNL     1      -9.226   5.111 -16.908  1.00  0.00    -0.040 C 
ATOM     20  C   UNL     1      -9.388   6.453 -17.343  1.00  0.00    +0.135 A 
ATOM     21  C   UNL     1      -9.477   7.596 -16.580  1.00  0.00    +0.151 A 
ATOM     22  N   UNL     1      -9.494   6.877 -18.646  1.00  0.00    -0.205 N 
ATOM     23  N   UNL     1      -9.634   8.711 -17.367  1.00  0.00    -0.234 NA
ATOM     24  N   UNL     1      -9.456   6.085 -19.766  1.00  0.00    -0.174 NA
ATOM     25  C   UNL     1      -9.645   8.257 -18.603  1.00  0.00    +0.154 A 
ATOM     26  C   UNL     1      -9.588   6.761 -20.862  1.00  0.00    +0.134 C 
ATOM     27  C   UNL     1      -9.782   8.933 -19.836  1.00  0.00    +0.051 C 
ATOM     28  C   UNL     1      -9.760   8.230 -20.975  1.00  0.00    +0.026 C 
ENDBRANCH  17  19
ENDBRANCH   8  11
ENDBRANCH   1   7
BRANCH   5  29
ATOM     29  C   UNL     1     -11.804  -0.054  -7.968  1.00  0.00    +0.416 C 
ATOM     30  F   UNL     1     -10.437  -0.084  -7.971  1.00  0.00    -0.166 F 
ATOM     31  F   UNL     1     -12.170  -1.337  -7.687  1.00  0.00    -0.166 F 
ATOM     32  F   UNL     1     -12.141   0.695  -6.883  1.00  0.00    -0.166 F 
ENDBRANCH   5  29
BRANCH   4  33
ATOM     33  C   UNL     1     -14.728   0.751  -8.272  1.00  0.00    +0.120 C 
BRANCH  33  34
ATOM     34  N   UNL     1     -15.061  -0.638  -7.955  1.00  0.00    -0.297 NA
ATOM     35  C   UNL     1     -15.136  -1.470  -9.163  1.00  0.00    +0.100 C 
ATOM     36  C   UNL     1     -16.306  -0.762  -7.167  1.00  0.00    +0.100 C 
ATOM     37  C   UNL     1     -15.362  -2.971  -8.841  1.00  0.00    +0.099 C 
ATOM     38  C   UNL     1     -17.043  -2.120  -7.327  1.00  0.00    +0.099 C 
ATOM     39  N   UNL     1     -16.187  -3.275  -7.651  1.00  0.00    -0.304 NA
ATOM     40  C   UNL     1     -15.340  -3.626  -6.509  1.00  0.00    +0.105 C 
ENDBRANCH  33  34
ENDBRANCH   4  33
TORSDOF 6
ENDMDL
MODEL 3
REMARK VINA RESULT:    -9.974      6.506      9.290
REMARK INTER + INTRA:         -14.234
REMARK INTER:                 -13.636
REMARK INTRA:                  -0.598
REMARK UNBOUND:                -0.762
REMARK SMILES Cc1ccc(C(=O)Nc2ccc(CN3CCN(C)CC3)c(C(F)(F)F)c2)cc1C#Cc1cnc2cccnn12
REMARK SMILES IDX 9 1 10 2 11 3 12 4 21 5 26 6 8 7 6 8 7 9 5 11 2 12 3 13
REMARK SMILES IDX 28 14 4 15 27 16 29 17 1 18 30 19 31 20 32 21 39 22 33 23
REMARK SMILES IDX 38 24 34 25 37 26 35 27 36 28 22 29 23 30 24 31 25 32 13 33
REMARK SMILES IDX 14 34 15 35 20 36 16 37 19 38 17 39 18 40
REMARK H PARENT 8 10
ROOT
ATOM      1  C   UNL     1     -11.391  -2.436 -10.291  1.00  0.00    +0.042 A 
ATOM      2  C   UNL     1     -10.234  -2.437  -9.511  1.00  0.00    +0.026 A 
ATOM      3  C   UNL     1      -9.844  -3.582  -8.814  1.00  0.00    +0.008 A 
ATOM      4  C   UNL     1     -10.604  -4.762  -8.881  1.00  0.00    -0.022 A 
ATOM      5  C   UNL     1     -11.784  -4.773  -9.660  1.00  0.00    +0.062 A 
ATOM      6  C   UNL     1     -12.151  -3.604 -10.364  1.00  0.00    +0.039 A 
ENDROOT
BRANCH   1   7
ATOM      7  N   UNL     1     -11.707  -1.242 -10.972  1.00  0.00    -0.322 N 
ATOM      8  C   UNL     1     -11.802   0.031 -10.437  1.00  0.00    +0.255 C 
ATOM      9  O   UNL     1     -11.560   0.362  -9.283  1.00  0.00    -0.269 OA
ATOM     10  H   UNL     1     -11.811  -1.325 -11.976  1.00  0.00    +0.170 HD
BRANCH   8  11
ATOM     11  C   UNL     1     -12.199   1.090 -11.406  1.00  0.00    +0.041 A 
ATOM     12  C   UNL     1     -13.022   3.097 -13.201  1.00  0.00    -0.035 A 
ATOM     13  C   UNL     1     -13.887   2.639 -12.195  1.00  0.00    +0.005 A 
ATOM     14  C   UNL     1     -11.743   2.525 -13.310  1.00  0.00    +0.029 A 
ATOM     15  C   UNL     1     -13.480   1.641 -11.307  1.00  0.00    +0.014 A 
ATOM     16  C   UNL     1     -11.336   1.522 -12.421  1.00  0.00    +0.031 A 
ATOM     17  C   UNL     1     -10.822   2.938 -14.328  1.00  0.00    -0.060 C 
ATOM     18  C   UNL     1     -13.489   4.172 -14.145  1.00  0.00    +0.045 C 
BRANCH  17  19
ATOM     19  C   UNL     1     -10.038   3.271 -15.174  1.00  0.00    -0.040 C 
ATOM     20  C   UNL     1      -9.118   3.675 -16.178  1.00  0.00    +0.135 A 
ATOM     21  C   UNL     1      -7.843   3.209 -16.408  1.00  0.00    +0.151 A 
ATOM     22  N   UNL     1      -9.332   4.636 -17.136  1.00  0.00    -0.205 N 
ATOM     23  N   UNL     1      -7.262   3.851 -17.475  1.00  0.00    -0.234 NA
ATOM     24  N   UNL     1     -10.474   5.379 -17.304  1.00  0.00    -0.174 NA
ATOM     25  C   UNL     1      -8.171   4.705 -17.894  1.00  0.00    +0.154 A 
ATOM     26  C   UNL     1     -10.386   6.217 -18.287  1.00  0.00    +0.134 C 
ATOM     27  C   UNL     1      -8.143   5.640 -18.954  1.00  0.00    +0.051 C 
ATOM     28  C   UNL     1      -9.217   6.407 -19.180  1.00  0.00    +0.026 C 
ENDBRANCH  17  19
ENDBRANCH   8  11
ENDBRANCH   1   7
BRANCH   5  29
ATOM     29  C   UNL     1     -12.659  -6.004  -9.808  1.00  0.00    +0.416 C 
ATOM     30  F   UNL     1     -13.422  -5.970 -10.942  1.00  0.00    -0.166 F 
ATOM     31  F   UNL     1     -13.560  -6.172  -8.798  1.00  0.00    -0.166 F 
ATOM     32  F   UNL     1     -11.948  -7.162  -9.892  1.00  0.00    -0.166 F 
ENDBRANCH   5  29
BRANCH   4  33
ATOM     33  C   UNL     1     -10.121  -5.983  -8.120  1.00  0.00    +0.120 C 
BRANCH  33  34
ATOM     34  N   UNL     1      -8.809  -6.442  -8.577  1.00  0.00    -0.297 NA
ATOM     35  C   UNL     1      -8.869  -7.805  -9.121  1.00  0.00    +0.100 C 
ATOM     36  C   UNL     1      -7.773  -6.354  -7.526  1.00  0.00    +0.100 C 
ATOM     37  C   UNL     1      -7.516  -8.266  -9.728  1.00  0.00    +0.099 C 
ATOM     38  C   UNL     1      -6.594  -7.351  -7.690  1.00  0.00    +0.099 C 
ATOM     39  N   UNL     1      -6.291  -7.756  -9.074  1.00  0.00    -0.304 NA
ATOM     40  C   UNL     1      -5.728  -6.635  -9.829  1.00  0.00    +0.105 C 
ENDBRANCH  33  34
ENDBRANCH   4  33
TORSDOF 6
ENDMDL
MODEL 4
REMARK VINA RESULT:    -9.968      6.326     12.875
REMARK INTER + INTRA:         -14.226
REMARK INTER:                 -13.411
REMARK INTRA:                  -0.814
REMARK UNBOUND:                -0.762
REMARK SMILES Cc1ccc(C(=O)Nc2ccc(CN3CCN(C)CC3)c(C(F)(F)F)c2)cc1C#Cc1cnc2cccnn12
REMARK SMILES IDX 9 1 10 2 11 3 12 4 21 5 26 6 8 7 6 8 7 9 5 11 2 12 3 13
REMARK SMILES IDX 28 14 4 15 27 16 29 17 1 18 30 19 31 20 32 21 39 22 33 23
REMARK SMILES IDX 38 24 34 25 37 26 35 27 36 28 22 29 23 30 24 31 25 32 13 33
REMARK SMILES IDX 14 34 15 35 20 36 16 37 19 38 17 39 18 40
REMARK H PARENT 8 10
ROOT
ATOM      1  C   UNL     1     -14.498   0.709  -9.870  1.00  0.00    +0.042 A 
ATOM      2  C   UNL     1     -15.168   1.438  -8.886  1.00  0.00    +0.026 A 
ATOM      3  C   UNL     1     -15.762   0.791  -7.801  1.00  0.00    +0.008 A 
ATOM      4  C   UNL     1     -15.701  -0.607  -7.670  1.00  0.00    -0.022 A 
ATOM      5  C   UNL     1     -15.034  -1.358  -8.665  1.00  0.00    +0.062 A 
ATOM      6  C   UNL     1     -14.430  -0.679  -9.747  1.00  0.00    +0.039 A 
ENDROOT
BRANCH   1   7
ATOM      7  N   UNL     1     -13.915   1.440 -10.927  1.00  0.00    -0.322 N 
ATOM      8  C   UNL     1     -12.600   1.399 -11.353  1.00  0.00    +0.255 C 
ATOM      9  O   UNL     1     -11.714   0.666 -10.931  1.00  0.00    -0.269 OA
ATOM     10  H   UNL     1     -14.555   2.007 -11.470  1.00  0.00    +0.170 HD
BRANCH   8  11
ATOM     11  C   UNL     1     -12.274   2.326 -12.473  1.00  0.00    +0.041 A 
ATOM     12  C   UNL     1     -11.732   4.110 -14.582  1.00  0.00    -0.035 A 
ATOM     13  C   UNL     1     -12.969   4.141 -13.919  1.00  0.00    +0.005 A 
ATOM     14  C   UNL     1     -10.773   3.160 -14.189  1.00  0.00    +0.029 A 
ATOM     15  C   UNL     1     -13.239   3.253 -12.876  1.00  0.00    +0.014 A 
ATOM     16  C   UNL     1     -11.046   2.269 -13.143  1.00  0.00    +0.031 A 
ATOM     17  C   UNL     1      -9.500   3.067 -14.840  1.00  0.00    -0.060 C 
ATOM     18  C   UNL     1     -11.470   5.076 -15.705  1.00  0.00    +0.045 C 
BRANCH  17  19
ATOM     19  C   UNL     1      -8.428   2.975 -15.374  1.00  0.00    -0.040 C 
ATOM     20  C   UNL     1      -7.163   2.854 -16.006  1.00  0.00    +0.135 A 
ATOM     21  C   UNL     1      -6.309   3.856 -16.413  1.00  0.00    +0.151 A 
ATOM     22  N   UNL     1      -6.534   1.681 -16.345  1.00  0.00    -0.205 N 
ATOM     23  N   UNL     1      -5.175   3.341 -16.992  1.00  0.00    -0.234 NA
ATOM     24  N   UNL     1      -7.007   0.411 -16.131  1.00  0.00    -0.174 NA
ATOM     25  C   UNL     1      -5.332   2.035 -16.945  1.00  0.00    +0.154 A 
ATOM     26  C   UNL     1      -6.200  -0.504 -16.563  1.00  0.00    +0.134 C 
ATOM     27  C   UNL     1      -4.497   0.986 -17.392  1.00  0.00    +0.051 C 
ATOM     28  C   UNL     1      -4.890  -0.283 -17.223  1.00  0.00    +0.026 C 
ENDBRANCH  17  19
ENDBRANCH   8  11
ENDBRANCH   1   7
BRANCH   5  29
ATOM     29  C   UNL     1     -14.899  -2.868  -8.601  1.00  0.00    +0.416 C 
ATOM     30  F   UNL     1     -13.917  -3.270  -7.738  1.00  0.00    -0.166 F 
ATOM     31  F   UNL     1     -14.565  -3.449  -9.788  1.00  0.00    -0.166 F 
ATOM     32  F   UNL     1     -16.029  -3.490  -8.166  1.00  0.00    -0.166 F 
ENDBRANCH   5  29
BRANCH   4  33
ATOM     33  C   UNL     1     -16.347  -1.254  -6.459  1.00  0.00    +0.120 C 
BRANCH  33  34
ATOM     34  N   UNL     1     -17.732  -0.821  -6.268  1.00  0.00    -0.297 NA
ATOM     35  C   UNL     1     -18.181  -1.028  -4.885  1.00  0.00    +0.100 C 
ATOM     36  C   UNL     1     -18.668  -1.466  -7.213  1.00  0.00    +0.100 C 
ATOM     37  C   UNL     1     -19.602  -0.460  -4.627  1.00  0.00    +0.099 C 
ATOM     38  C   UNL     1     -20.133  -1.569  -6.708  1.00  0.00    +0.099 C 
ATOM     39  N   UNL     1     -20.554  -0.525  -5.758  1.00  0.00    -0.304 NA
ATOM     40  C   UNL     1     -20.652   0.774  -6.428  1.00  0.00    +0.105 C 
ENDBRANCH  33  34
ENDBRANCH   4  33
TORSDOF 6
ENDMDL
MODEL 5
REMARK VINA RESULT:    -9.804      3.393      5.056
REMARK INTER + INTRA:         -14.005
REMARK INTER:                 -13.222
REMARK INTRA:                  -0.784
REMARK UNBOUND:                -0.762
REMARK SMILES Cc1ccc(C(=O)Nc2ccc(CN3CCN(C)CC3)c(C(F)(F)F)c2)cc1C#Cc1cnc2cccnn12
REMARK SMILES IDX 9 1 10 2 11 3 12 4 21 5 26 6 8 7 6 8 7 9 5 11 2 12 3 13
REMARK SMILES IDX 28 14 4 15 27 16 29 17 1 18 30 19 31 20 32 21 39 22 33 23
REMARK SMILES IDX 38 24 34 25 37 26 35 27 36 28 22 29 23 30 24 31 25 32 13 33
REMARK SMILES IDX 14 34 15 35 20 36 16 37 19 38 17 39 18 40
REMARK H PARENT 8 10
ROOT
ATOM      1  C   UNL     1      -6.739   1.242 -15.350  1.00  0.00    +0.042 A 
ATOM      2  C   UNL     1      -5.677   2.099 -15.643  1.00  0.00    +0.026 A 
ATOM      3  C   UNL     1      -4.406   1.590 -15.920  1.00  0.00    +0.008 A 
ATOM      4  C   UNL     1      -4.164   0.207 -15.911  1.00  0.00    -0.022 A 
ATOM      5  C   UNL     1      -5.227  -0.673 -15.606  1.00  0.00    +0.062 A 
ATOM      6  C   UNL     1      -6.507  -0.134 -15.341  1.00  0.00    +0.039 A 
ENDROOT
BRANCH   1   7
ATOM      7  N   UNL     1      -7.992   1.835 -15.094  1.00  0.00    -0.322 N 
ATOM      8  C   UNL     1      -8.616   2.831 -15.825  1.00  0.00    +0.255 C 
ATOM      9  O   UNL     1      -8.221   3.332 -16.870  1.00  0.00    -0.269 OA
ATOM     10  H   UNL     1      -8.516   1.436 -14.325  1.00  0.00    +0.170 HD
BRANCH   8  11
ATOM     11  C   UNL     1      -9.925   3.286 -15.276  1.00  0.00    +0.041 A 
ATOM     12  C   UNL     1     -12.396   4.207 -14.293  1.00  0.00    -0.035 A 
ATOM     13  C   UNL     1     -11.744   4.884 -15.335  1.00  0.00    +0.005 A 
ATOM     14  C   UNL     1     -11.787   3.070 -13.734  1.00  0.00    +0.029 A 
ATOM     15  C   UNL     1     -10.516   4.430 -15.820  1.00  0.00    +0.014 A 
ATOM     16  C   UNL     1     -10.554   2.616 -14.220  1.00  0.00    +0.031 A 
ATOM     17  C   UNL     1     -12.395   2.347 -12.656  1.00  0.00    -0.060 C 
ATOM     18  C   UNL     1     -13.717   4.721 -13.788  1.00  0.00    +0.045 C 
BRANCH  17  19
ATOM     19  C   UNL     1     -12.889   1.729 -11.753  1.00  0.00    -0.040 C 
ATOM     20  C   UNL     1     -13.464   0.994 -10.683  1.00  0.00    +0.135 A 
ATOM     21  C   UNL     1     -14.711   1.138 -10.117  1.00  0.00    +0.151 A 
ATOM     22  N   UNL     1     -12.865  -0.028  -9.988  1.00  0.00    -0.205 N 
ATOM     23  N   UNL     1     -14.903   0.239  -9.096  1.00  0.00    -0.234 NA
ATOM     24  N   UNL     1     -11.606  -0.531 -10.201  1.00  0.00    -0.174 NA
ATOM     25  C   UNL     1     -13.782  -0.448  -9.032  1.00  0.00    +0.154 A 
ATOM     26  C   UNL     1     -11.305  -1.491  -9.385  1.00  0.00    +0.134 C 
ATOM     27  C   UNL     1     -13.390  -1.501  -8.176  1.00  0.00    +0.051 C 
ATOM     28  C   UNL     1     -12.174  -2.043  -8.317  1.00  0.00    +0.026 C 
ENDBRANCH  17  19
ENDBRANCH   8  11
ENDBRANCH   1   7
BRANCH   5  29
ATOM     29  C   UNL     1      -5.067  -2.182 -15.590  1.00  0.00    +0.416 C 
ATOM     30  F   UNL     1      -6.255  -2.832 -15.406  1.00  0.00    -0.166 F 
ATOM     31  F   UNL     1      -4.268  -2.647 -14.587  1.00  0.00    -0.166 F 
ATOM     32  F   UNL     1      -4.565  -2.681 -16.752  1.00  0.00    -0.166 F 
ENDBRANCH   5  29
BRANCH   4  33
ATOM     33  C   UNL     1      -2.767  -0.290 -16.240  1.00  0.00    +0.120 C 
BRANCH  33  34
ATOM     34  N   UNL     1      -2.332   0.115 -17.577  1.00  0.00    -0.297 NA
ATOM     35  C   UNL     1      -3.251  -0.366 -18.617  1.00  0.00    +0.100 C 
ATOM     36  C   UNL     1      -0.948  -0.307 -17.880  1.00  0.00    +0.100 C 
ATOM     37  C   UNL     1      -2.879   0.158 -20.030  1.00  0.00    +0.099 C 
ATOM     38  C   UNL     1      -0.641  -0.491 -19.391  1.00  0.00    +0.099 C 
ATOM     39  N   UNL     1      -1.438   0.342 -20.309  1.00  0.00    -0.304 NA
ATOM     40  C   UNL     1      -1.061   1.752 -20.185  1.00  0.00    +0.105 C 
ENDBRANCH  33  34
ENDBRANCH   4  33
TORSDOF 6
ENDMDL
MODEL 6
REMARK VINA RESULT:    -9.794      1.675      2.052
REMARK INTER + INTRA:         -13.991
REMARK INTER:                 -12.947
REMARK INTRA:                  -1.044
REMARK UNBOUND:                -0.762
REMARK SMILES Cc1ccc(C(=O)Nc2ccc(CN3CCN(C)CC3)c(C(F)(F)F)c2)cc1C#Cc1cnc2cccnn12
REMARK SMILES IDX 9 1 10 2 11 3 12 4 21 5 26 6 8 7 6 8 7 9 5 11 2 12 3 13
REMARK SMILES IDX 28 14 4 15 27 16 29 17 1 18 30 19 31 20 32 21 39 22 33 23
REMARK SMILES IDX 38 24 34 25 37 26 35 27 36 28 22 29 23 30 24 31 25 32 13 33
REMARK SMILES IDX 14 34 15 35 20 36 16 37 19 38 17 39 18 40
REMARK H PARENT 8 10
ROOT
ATOM      1  C   UNL     1      -5.305  -0.440 -15.956  1.00  0.00    +0.042 A 
ATOM      2  C   UNL     1      -4.948  -1.203 -17.069  1.00  0.00    +0.026 A 
ATOM      3  C   UNL     1      -4.197  -2.371 -16.921  1.00  0.00    +0.008 A 
ATOM      4  C   UNL     1      -3.782  -2.807 -15.652  1.00  0.00    -0.022 A 
ATOM      5  C   UNL     1      -4.128  -2.038 -14.517  1.00  0.00    +0.062 A 
ATOM      6  C   UNL     1      -4.899  -0.867 -14.692  1.00  0.00    +0.039 A 
ENDROOT
BRANCH   1   7
ATOM      7  N   UNL     1      -6.075   0.719 -16.192  1.00  0.00    -0.322 N 
ATOM      8  C   UNL     1      -5.636   1.933 -16.688  1.00  0.00    +0.255 C 
ATOM      9  O   UNL     1      -4.507   2.201 -17.079  1.00  0.00    -0.269 OA
ATOM     10  H   UNL     1      -7.071   0.620 -16.038  1.00  0.00    +0.170 HD
BRANCH   8  11
ATOM     11  C   UNL     1      -6.684   2.987 -16.785  1.00  0.00    +0.041 A 
ATOM     12  C   UNL     1      -8.617   5.021 -17.018  1.00  0.00    -0.035 A 
ATOM     13  C   UNL     1      -7.408   5.099 -17.726  1.00  0.00    +0.005 A 
ATOM     14  C   UNL     1      -8.842   3.918 -16.175  1.00  0.00    +0.029 A 
ATOM     15  C   UNL     1      -6.447   4.093 -17.607  1.00  0.00    +0.014 A 
ATOM     16  C   UNL     1      -7.876   2.910 -16.055  1.00  0.00    +0.031 A 
ATOM     17  C   UNL     1     -10.049   3.791 -15.413  1.00  0.00    -0.060 C 
ATOM     18  C   UNL     1      -9.632   6.121 -17.163  1.00  0.00    +0.045 C 
BRANCH  17  19
ATOM     19  C   UNL     1     -11.053   3.669 -14.767  1.00  0.00    -0.040 C 
ATOM     20  C   UNL     1     -12.236   3.517 -13.996  1.00  0.00    +0.135 A 
ATOM     21  C   UNL     1     -13.437   4.178 -14.129  1.00  0.00    +0.151 A 
ATOM     22  N   UNL     1     -12.409   2.659 -12.937  1.00  0.00    -0.205 N 
ATOM     23  N   UNL     1     -14.345   3.757 -13.189  1.00  0.00    -0.234 NA
ATOM     24  N   UNL     1     -11.477   1.787 -12.434  1.00  0.00    -0.174 NA
ATOM     25  C   UNL     1     -13.708   2.849 -12.481  1.00  0.00    +0.154 A 
ATOM     26  C   UNL     1     -11.920   1.106 -11.425  1.00  0.00    +0.134 C 
ATOM     27  C   UNL     1     -14.128   2.072 -11.378  1.00  0.00    +0.051 C 
ATOM     28  C   UNL     1     -13.274   1.201 -10.826  1.00  0.00    +0.026 C 
ENDBRANCH  17  19
ENDBRANCH   8  11
ENDBRANCH   1   7
BRANCH   5  29
ATOM     29  C   UNL     1      -3.742  -2.439 -13.105  1.00  0.00    +0.416 C 
ATOM     30  F   UNL     1      -4.041  -1.471 -12.187  1.00  0.00    -0.166 F 
ATOM     31  F   UNL     1      -2.408  -2.665 -12.935  1.00  0.00    -0.166 F 
ATOM     32  F   UNL     1      -4.386  -3.555 -12.668  1.00  0.00    -0.166 F 
ENDBRANCH   5  29
BRANCH   4  33
ATOM     33  C   UNL     1      -2.985  -4.095 -15.550  1.00  0.00    +0.120 C 
BRANCH  33  34
ATOM     34  N   UNL     1      -3.710  -5.244 -16.092  1.00  0.00    -0.297 NA
ATOM     35  C   UNL     1      -4.935  -5.524 -15.331  1.00  0.00    +0.100 C 
ATOM     36  C   UNL     1      -2.873  -6.459 -16.181  1.00  0.00    +0.100 C 
ATOM     37  C   UNL     1      -5.785  -6.658 -15.964  1.00  0.00    +0.099 C 
ATOM     38  C   UNL     1      -3.660  -7.796 -16.129  1.00  0.00    +0.099 C 
ATOM     39  N   UNL     1      -5.041  -7.742 -16.640  1.00  0.00    -0.304 NA
ATOM     40  C   UNL     1      -5.047  -7.549 -18.092  1.00  0.00    +0.105 C 
ENDBRANCH  33  34
ENDBRANCH   4  33
TORSDOF 6
ENDMDL
MODEL 7
REMARK VINA RESULT:    -9.679      6.151     10.581
REMARK INTER + INTRA:         -13.835
REMARK INTER:                 -13.180
REMARK INTRA:                  -0.655
REMARK UNBOUND:                -0.762
REMARK SMILES Cc1ccc(C(=O)Nc2ccc(CN3CCN(C)CC3)c(C(F)(F)F)c2)cc1C#Cc1cnc2cccnn12
REMARK SMILES IDX 9 1 10 2 11 3 12 4 21 5 26 6 8 7 6 8 7 9 5 11 2 12 3 13
REMARK SMILES IDX 28 14 4 15 27 16 29 17 1 18 30 19 31 20 32 21 39 22 33 23
REMARK SMILES IDX 38 24 34 25 37 26 35 27 36 28 22 29 23 30 24 31 25 32 13 33
REMARK SMILES IDX 14 34 15 35 20 36 16 37 19 38 17 39 18 40
REMARK H PARENT 8 10
ROOT
ATOM      1  C   UNL     1     -12.247   0.382 -10.683  1.00  0.00    +0.042 A 
ATOM      2  C   UNL     1     -11.529  -0.805 -10.532  1.00  0.00    +0.026 A 
ATOM      3  C   UNL     1     -11.876  -1.727  -9.542  1.00  0.00    +0.008 A 
ATOM      4  C   UNL     1     -12.954  -1.484  -8.675  1.00  0.00    -0.022 A 
ATOM      5  C   UNL     1     -13.684  -0.281  -8.810  1.00  0.00    +0.062 A 
ATOM      6  C   UNL     1     -13.321   0.630  -9.827  1.00  0.00    +0.039 A 
ENDROOT
BRANCH   1   7
ATOM      7  N   UNL     1     -11.839   1.253 -11.715  1.00  0.00    -0.322 N 
ATOM      8  C   UNL     1     -12.599   2.219 -12.351  1.00  0.00    +0.255 C 
ATOM      9  O   UNL     1     -13.750   2.540 -12.083  1.00  0.00    -0.269 OA
ATOM     10  H   UNL     1     -10.859   1.203 -11.967  1.00  0.00    +0.170 HD
BRANCH   8  11
ATOM     11  C   UNL     1     -11.896   2.955 -13.438  1.00  0.00    +0.041 A 
ATOM     12  C   UNL     1     -10.630   4.401 -15.495  1.00  0.00    -0.035 A 
ATOM     13  C   UNL     1     -11.864   4.825 -14.979  1.00  0.00    +0.005 A 
ATOM     14  C   UNL     1     -10.043   3.232 -14.982  1.00  0.00    +0.029 A 
ATOM     15  C   UNL     1     -12.495   4.105 -13.962  1.00  0.00    +0.014 A 
ATOM     16  C   UNL     1     -10.677   2.509 -13.962  1.00  0.00    +0.031 A 
ATOM     17  C   UNL     1      -8.794   2.738 -15.481  1.00  0.00    -0.060 C 
ATOM     18  C   UNL     1      -9.976   5.194 -16.594  1.00  0.00    +0.045 C 
BRANCH  17  19
ATOM     19  C   UNL     1      -7.748   2.311 -15.887  1.00  0.00    -0.040 C 
ATOM     20  C   UNL     1      -6.515   1.794 -16.366  1.00  0.00    +0.135 A 
ATOM     21  C   UNL     1      -5.462   2.477 -16.933  1.00  0.00    +0.151 A 
ATOM     22  N   UNL     1      -6.129   0.476 -16.356  1.00  0.00    -0.205 N 
ATOM     23  N   UNL     1      -4.440   1.626 -17.275  1.00  0.00    -0.234 NA
ATOM     24  N   UNL     1      -6.859  -0.583 -15.878  1.00  0.00    -0.174 NA
ATOM     25  C   UNL     1      -4.862   0.429 -16.924  1.00  0.00    +0.154 A 
ATOM     26  C   UNL     1      -6.243  -1.715 -16.007  1.00  0.00    +0.134 C 
ATOM     27  C   UNL     1      -4.246  -0.838 -17.032  1.00  0.00    +0.051 C 
ATOM     28  C   UNL     1      -4.896  -1.922 -16.592  1.00  0.00    +0.026 C 
ENDBRANCH  17  19
ENDBRANCH   8  11
ENDBRANCH   1   7
BRANCH   5  29
ATOM     29  C   UNL     1     -14.875   0.061  -7.934  1.00  0.00    +0.416 C 
ATOM     30  F   UNL     1     -15.471   1.237  -8.296  1.00  0.00    -0.166 F 
ATOM     31  F   UNL     1     -14.567   0.228  -6.616  1.00  0.00    -0.166 F 
ATOM     32  F   UNL     1     -15.866  -0.871  -7.987  1.00  0.00    -0.166 F 
ENDBRANCH   5  29
BRANCH   4  33
ATOM     33  C   UNL     1     -13.298  -2.531  -7.631  1.00  0.00    +0.120 C 
BRANCH  33  34
ATOM     34  N   UNL     1     -12.727  -3.840  -7.945  1.00  0.00    -0.297 NA
ATOM     35  C   UNL     1     -13.682  -4.693  -8.666  1.00  0.00    +0.100 C 
ATOM     36  C   UNL     1     -12.214  -4.542  -6.749  1.00  0.00    +0.100 C 
ATOM     37  C   UNL     1     -13.056  -6.038  -9.121  1.00  0.00    +0.099 C 
ATOM     38  C   UNL     1     -12.187  -6.091  -6.867  1.00  0.00    +0.099 C 
ATOM     39  N   UNL     1     -12.029  -6.623  -8.231  1.00  0.00    -0.304 NA
ATOM     40  C   UNL     1     -10.684  -6.349  -8.741  1.00  0.00    +0.105 C 
ENDBRANCH  33  34
ENDBRANCH   4  33
TORSDOF 6
ENDMDL
MODEL 8
REMARK VINA RESULT:    -9.629      6.878     11.450
REMARK INTER + INTRA:         -13.768
REMARK INTER:                 -13.041
REMARK INTRA:                  -0.727
REMARK UNBOUND:                -0.762
REMARK SMILES Cc1ccc(C(=O)Nc2ccc(CN3CCN(C)CC3)c(C(F)(F)F)c2)cc1C#Cc1cnc2cccnn12
REMARK SMILES IDX 9 1 10 2 11 3 12 4 21 5 26 6 8 7 6 8 7 9 5 11 2 12 3 13
REMARK SMILES IDX 28 14 4 15 27 16 29 17 1 18 30 19 31 20 32 21 39 22 33 23
REMARK SMILES IDX 38 24 34 25 37 26 35 27 36 28 22 29 23 30 24 31 25 32 13 33
REMARK SMILES IDX 14 34 15 35 20 36 16 37 19 38 17 39 18 40
REMARK H PARENT 8 10
ROOT
ATOM      1  C   UNL     1     -11.590  -0.383 -10.687  1.00  0.00    +0.042 A 
ATOM      2  C   UNL     1     -11.511   0.389  -9.527  1.00  0.00    +0.026 A 
ATOM      3  C   UNL     1     -12.107  -0.044  -8.340  1.00  0.00    +0.008 A 
ATOM      4  C   UNL     1     -12.800  -1.265  -8.284  1.00  0.00    -0.022 A 
ATOM      5  C   UNL     1     -12.897  -2.052  -9.454  1.00  0.00    +0.062 A 
ATOM      6  C   UNL     1     -12.275  -1.598 -10.639  1.00  0.00    +0.039 A 
ENDROOT
BRANCH   1   7
ATOM      7  N   UNL     1     -10.950   0.121 -11.839  1.00  0.00    -0.322 N 
ATOM      8  C   UNL     1     -11.374   1.158 -12.651  1.00  0.00    +0.255 C 
ATOM      9  O   UNL     1     -12.352   1.874 -12.475  1.00  0.00    -0.269 OA
ATOM     10  H   UNL     1     -10.047  -0.286 -12.050  1.00  0.00    +0.170 HD
BRANCH   8  11
ATOM     11  C   UNL     1     -10.501   1.431 -13.826  1.00  0.00    +0.041 A 
ATOM     12  C   UNL     1      -8.825   1.871 -16.046  1.00  0.00    -0.035 A 
ATOM     13  C   UNL     1      -8.872   0.614 -15.423  1.00  0.00    +0.005 A 
ATOM     14  C   UNL     1      -9.616   2.914 -15.533  1.00  0.00    +0.029 A 
ATOM     15  C   UNL     1      -9.700   0.397 -14.319  1.00  0.00    +0.014 A 
ATOM     16  C   UNL     1     -10.445   2.696 -14.424  1.00  0.00    +0.031 A 
ATOM     17  C   UNL     1      -9.597   4.224 -16.114  1.00  0.00    -0.060 C 
ATOM     18  C   UNL     1      -7.921   2.076 -17.230  1.00  0.00    +0.045 C 
BRANCH  17  19
ATOM     19  C   UNL     1      -9.594   5.327 -16.588  1.00  0.00    -0.040 C 
ATOM     20  C   UNL     1      -9.592   6.627 -17.159  1.00  0.00    +0.135 A 
ATOM     21  C   UNL     1      -9.592   7.845 -16.517  1.00  0.00    +0.151 A 
ATOM     22  N   UNL     1      -9.594   6.923 -18.501  1.00  0.00    -0.205 N 
ATOM     23  N   UNL     1      -9.594   8.884 -17.416  1.00  0.00    -0.234 NA
ATOM     24  N   UNL     1      -9.591   6.021 -19.535  1.00  0.00    -0.174 NA
ATOM     25  C   UNL     1      -9.599   8.309 -18.600  1.00  0.00    +0.154 A 
ATOM     26  C   UNL     1      -9.600   6.592 -20.698  1.00  0.00    +0.134 C 
ATOM     27  C   UNL     1      -9.607   8.865 -19.899  1.00  0.00    +0.051 C 
ATOM     28  C   UNL     1      -9.609   8.051 -20.962  1.00  0.00    +0.026 C 
ENDBRANCH  17  19
ENDBRANCH   8  11
ENDBRANCH   1   7
BRANCH   5  29
ATOM     29  C   UNL     1     -13.608  -3.392  -9.486  1.00  0.00    +0.416 C 
ATOM     30  F   UNL     1     -13.420  -4.056 -10.666  1.00  0.00    -0.166 F 
ATOM     31  F   UNL     1     -14.963  -3.307  -9.357  1.00  0.00    -0.166 F 
ATOM     32  F   UNL     1     -13.178  -4.252  -8.523  1.00  0.00    -0.166 F 
ENDBRANCH   5  29
BRANCH   4  33
ATOM     33  C   UNL     1     -13.410  -1.694  -6.962  1.00  0.00    +0.120 C 
BRANCH  33  34
ATOM     34  N   UNL     1     -14.850  -1.442  -6.905  1.00  0.00    -0.297 NA
ATOM     35  C   UNL     1     -15.168  -0.032  -7.168  1.00  0.00    +0.100 C 
ATOM     36  C   UNL     1     -15.457  -1.875  -5.628  1.00  0.00    +0.100 C 
ATOM     37  C   UNL     1     -16.696   0.233  -7.238  1.00  0.00    +0.099 C 
ATOM     38  C   UNL     1     -16.753  -1.116  -5.234  1.00  0.00    +0.099 C 
ATOM     39  N   UNL     1     -17.550  -0.592  -6.356  1.00  0.00    -0.304 NA
ATOM     40  C   UNL     1     -18.167  -1.687  -7.108  1.00  0.00    +0.105 C 
ENDBRANCH  33  34
ENDBRANCH   4  33
TORSDOF 6
ENDMDL
MODEL 9
REMARK VINA RESULT:    -9.587      5.834     11.450
REMARK INTER + INTRA:         -13.712
REMARK INTER:                 -12.605
REMARK INTRA:                  -1.107
REMARK UNBOUND:                -0.762
REMARK SMILES Cc1ccc(C(=O)Nc2ccc(CN3CCN(C)CC3)c(C(F)(F)F)c2)cc1C#Cc1cnc2cccnn12
REMARK SMILES IDX 9 1 10 2 11 3 12 4 21 5 26 6 8 7 6 8 7 9 5 11 2 12 3 13
REMARK SMILES IDX 28 14 4 15 27 16 29 17 1 18 30 19 31 20 32 21 39 22 33 23
REMARK SMILES IDX 38 24 34 25 37 26 35 27 36 28 22 29 23 30 24 31 25 32 13 33
REMARK SMILES IDX 14 34 15 35 20 36 16 37 19 38 17 39 18 40
REMARK H PARENT 8 10
ROOT
ATOM      1  C   UNL     1     -11.910   0.295 -10.143  1.00  0.00    +0.042 A 
ATOM      2  C   UNL     1     -12.529  -0.929 -10.405  1.00  0.00    +0.026 A 
ATOM      3  C   UNL     1     -12.896  -1.780  -9.360  1.00  0.00    +0.008 A 
ATOM      4  C   UNL     1     -12.652  -1.427  -8.022  1.00  0.00    -0.022 A 
ATOM      5  C   UNL     1     -12.017  -0.196  -7.743  1.00  0.00    +0.062 A 
ATOM      6  C   UNL     1     -11.666   0.653  -8.817  1.00  0.00    +0.039 A 
ENDROOT
BRANCH   1   7
ATOM      7  N   UNL     1     -11.583   1.100 -11.255  1.00  0.00    -0.322 N 
ATOM      8  C   UNL     1     -12.431   1.922 -11.977  1.00  0.00    +0.255 C 
ATOM      9  O   UNL     1     -13.610   2.151 -11.738  1.00  0.00    -0.269 OA
ATOM     10  H   UNL     1     -10.602   1.124 -11.503  1.00  0.00    +0.170 HD
BRANCH   8  11
ATOM     11  C   UNL     1     -11.797   2.617 -13.131  1.00  0.00    +0.041 A 
ATOM     12  C   UNL     1     -10.656   3.991 -15.308  1.00  0.00    -0.035 A 
ATOM     13  C   UNL     1     -11.792   4.499 -14.658  1.00  0.00    +0.005 A 
ATOM     14  C   UNL     1     -10.107   2.774 -14.867  1.00  0.00    +0.029 A 
ATOM     15  C   UNL     1     -12.360   3.816 -13.581  1.00  0.00    +0.014 A 
ATOM     16  C   UNL     1     -10.680   2.088 -13.787  1.00  0.00    +0.031 A 
ATOM     17  C   UNL     1      -8.960   2.196 -15.502  1.00  0.00    -0.060 C 
ATOM     18  C   UNL     1     -10.068   4.747 -16.468  1.00  0.00    +0.045 C 
BRANCH  17  19
ATOM     19  C   UNL     1      -8.000   1.697 -16.022  1.00  0.00    -0.040 C 
ATOM     20  C   UNL     1      -6.867   1.096 -16.632  1.00  0.00    +0.135 A 
ATOM     21  C   UNL     1      -6.054   1.607 -17.620  1.00  0.00    +0.151 A 
ATOM     22  N   UNL     1      -6.354  -0.145 -16.345  1.00  0.00    -0.205 N 
ATOM     23  N   UNL     1      -5.058   0.722 -17.953  1.00  0.00    -0.234 NA
ATOM     24  N   UNL     1      -6.836  -1.031 -15.415  1.00  0.00    -0.174 NA
ATOM     25  C   UNL     1      -5.258  -0.324 -17.180  1.00  0.00    +0.154 A 
ATOM     26  C   UNL     1      -6.153  -2.131 -15.368  1.00  0.00    +0.134 C 
ATOM     27  C   UNL     1      -4.556  -1.546 -17.075  1.00  0.00    +0.051 C 
ATOM     28  C   UNL     1      -4.967  -2.465 -16.194  1.00  0.00    +0.026 C 
ENDBRANCH  17  19
ENDBRANCH   8  11
ENDBRANCH   1   7
BRANCH   5  29
ATOM     29  C   UNL     1     -11.729   0.279  -6.331  1.00  0.00    +0.416 C 
ATOM     30  F   UNL     1     -11.113   1.499  -6.304  1.00  0.00    -0.166 F 
ATOM     31  F   UNL     1     -10.894  -0.538  -5.628  1.00  0.00    -0.166 F 
ATOM     32  F   UNL     1     -12.852   0.431  -5.576  1.00  0.00    -0.166 F 
ENDBRANCH   5  29
BRANCH   4  33
ATOM     33  C   UNL     1     -13.091  -2.382  -6.927  1.00  0.00    +0.120 C 
BRANCH  33  34
ATOM     34  N   UNL     1     -14.531  -2.320  -6.676  1.00  0.00    -0.297 NA
ATOM     35  C   UNL     1     -14.826  -2.060  -5.260  1.00  0.00    +0.100 C 
ATOM     36  C   UNL     1     -15.246  -3.529  -7.136  1.00  0.00    +0.100 C 
ATOM     37  C   UNL     1     -16.342  -1.863  -4.993  1.00  0.00    +0.099 C 
ATOM     38  C   UNL     1     -16.572  -3.825  -6.384  1.00  0.00    +0.099 C 
ATOM     39  N   UNL     1     -17.269  -2.649  -5.836  1.00  0.00    -0.304 NA
ATOM     40  C   UNL     1     -17.817  -1.823  -6.914  1.00  0.00    +0.105 C 
ENDBRANCH  33  34
ENDBRANCH   4  33
TORSDOF 6
ENDMDL
MODEL 10
REMARK VINA RESULT:    -9.563      5.568     11.086
REMARK INTER + INTRA:         -13.679
REMARK INTER:                 -13.080
REMARK INTRA:                  -0.599
REMARK UNBOUND:                -0.762
REMARK SMILES Cc1ccc(C(=O)Nc2ccc(CN3CCN(C)CC3)c(C(F)(F)F)c2)cc1C#Cc1cnc2cccnn12
REMARK SMILES IDX 9 1 10 2 11 3 12 4 21 5 26 6 8 7 6 8 7 9 5 11 2 12 3 13
REMARK SMILES IDX 28 14 4 15 27 16 29 17 1 18 30 19 31 20 32 21 39 22 33 23
REMARK SMILES IDX 38 24 34 25 37 26 35 27 36 28 22 29 23 30 24 31 25 32 13 33
REMARK SMILES IDX 14 34 15 35 20 36 16 37 19 38 17 39 18 40
REMARK H PARENT 8 10
ROOT
ATOM      1  C   UNL     1     -12.079  -0.128 -10.303  1.00  0.00    +0.042 A 
ATOM      2  C   UNL     1     -12.137   0.372  -9.002  1.00  0.00    +0.026 A 
ATOM      3  C   UNL     1     -12.415  -0.472  -7.925  1.00  0.00    +0.008 A 
ATOM      4  C   UNL     1     -12.644  -1.844  -8.123  1.00  0.00    -0.022 A 
ATOM      5  C   UNL     1     -12.599  -2.362  -9.437  1.00  0.00    +0.062 A 
ATOM      6  C   UNL     1     -12.304  -1.490 -10.509  1.00  0.00    +0.039 A 
ENDROOT
BRANCH   1   7
ATOM      7  N   UNL     1     -11.780   0.789 -11.332  1.00  0.00    -0.322 N 
ATOM      8  C   UNL     1     -12.625   1.733 -11.889  1.00  0.00    +0.255 C 
ATOM      9  O   UNL     1     -13.771   1.989 -11.541  1.00  0.00    -0.269 OA
ATOM     10  H   UNL     1     -10.817   0.795 -11.647  1.00  0.00    +0.170 HD
BRANCH   8  11
ATOM     11  C   UNL     1     -12.029   2.532 -12.997  1.00  0.00    +0.041 A 
ATOM     12  C   UNL     1     -10.962   4.099 -15.078  1.00  0.00    -0.035 A 
ATOM     13  C   UNL     1     -12.093   4.530 -14.366  1.00  0.00    +0.005 A 
ATOM     14  C   UNL     1     -10.381   2.863 -14.748  1.00  0.00    +0.029 A 
ATOM     15  C   UNL     1     -12.624   3.751 -13.336  1.00  0.00    +0.014 A 
ATOM     16  C   UNL     1     -10.916   2.081 -13.716  1.00  0.00    +0.031 A 
ATOM     17  C   UNL     1      -9.237   2.361 -15.450  1.00  0.00    -0.060 C 
ATOM     18  C   UNL     1     -10.413   4.958 -16.184  1.00  0.00    +0.045 C 
BRANCH  17  19
ATOM     19  C   UNL     1      -8.279   1.925 -16.028  1.00  0.00    -0.040 C 
ATOM     20  C   UNL     1      -7.148   1.399 -16.707  1.00  0.00    +0.135 A 
ATOM     21  C   UNL     1      -6.398   1.983 -17.703  1.00  0.00    +0.151 A 
ATOM     22  N   UNL     1      -6.573   0.170 -16.493  1.00  0.00    -0.205 N 
ATOM     23  N   UNL     1      -5.380   1.157 -18.112  1.00  0.00    -0.234 NA
ATOM     24  N   UNL     1      -6.979  -0.773 -15.582  1.00  0.00    -0.174 NA
ATOM     25  C   UNL     1      -5.505   0.073 -17.376  1.00  0.00    +0.154 A 
ATOM     26  C   UNL     1      -6.249  -1.842 -15.609  1.00  0.00    +0.134 C 
ATOM     27  C   UNL     1      -4.749  -1.121 -17.351  1.00  0.00    +0.051 C 
ATOM     28  C   UNL     1      -5.086  -2.092 -16.493  1.00  0.00    +0.026 C 
ENDBRANCH  17  19
ENDBRANCH   8  11
ENDBRANCH   1   7
BRANCH   5  29
ATOM     29  C   UNL     1     -12.814  -3.832  -9.748  1.00  0.00    +0.416 C 
ATOM     30  F   UNL     1     -12.462  -4.153 -11.030  1.00  0.00    -0.166 F 
ATOM     31  F   UNL     1     -14.111  -4.240  -9.641  1.00  0.00    -0.166 F 
ATOM     32  F   UNL     1     -12.078  -4.662  -8.959  1.00  0.00    -0.166 F 
ENDBRANCH   5  29
BRANCH   4  33
ATOM     33  C   UNL     1     -12.922  -2.717  -6.913  1.00  0.00    +0.120 C 
BRANCH  33  34
ATOM     34  N   UNL     1     -14.349  -2.797  -6.599  1.00  0.00    -0.297 NA
ATOM     35  C   UNL     1     -14.826  -4.186  -6.588  1.00  0.00    +0.100 C 
ATOM     36  C   UNL     1     -15.181  -1.976  -7.503  1.00  0.00    +0.100 C 
ATOM     37  C   UNL     1     -16.306  -4.305  -6.132  1.00  0.00    +0.099 C 
ATOM     38  C   UNL     1     -16.646  -2.465  -7.661  1.00  0.00    +0.099 C 
ATOM     39  N   UNL     1     -17.204  -3.191  -6.507  1.00  0.00    -0.304 NA
ATOM     40  C   UNL     1     -17.404  -2.284  -5.374  1.00  0.00    +0.105 C 
ENDBRANCH  33  34
ENDBRANCH   4  33
TORSDOF 6
ENDMDL
