MODEL 1
REMARK VINA RESULT:   -10.079      0.000      0.000
REMARK INTER + INTRA:         -15.136
REMARK INTER:                 -14.203
REMARK INTRA:                  -0.933
REMARK UNBOUND:                -0.933
REMARK SMILES Cc1ccc(NC(=O)c2ccc(CN3CCN(C)CC3)cc2)cc1Nc1nccc(-c2cccnc2)n1
REMARK SMILES IDX 6 1 7 2 8 3 5 5 2 6 3 7 24 8 4 9 23 10 1 11 25 12 26 14
REMARK SMILES IDX 27 15 37 16 28 17 30 18 29 19 31 20 32 21 36 22 33 23 35 24
REMARK SMILES IDX 34 25 9 26 10 27 22 28 11 29 21 30 12 31 13 32 14 33 15 34
REMARK SMILES IDX 20 35 16 36 19 37 17 38 18 39
REMARK H PARENT 6 4 25 13
ROOT
ATOM      1  N   UNL     1     -11.704   3.234 -13.686  1.00  0.00    -0.322 N 
ATOM      2  C   UNL     1     -12.980   2.989 -13.211  1.00  0.00    +0.255 C 
ATOM      3  O   UNL     1     -14.023   3.498 -13.605  1.00  0.00    -0.269 OA
ATOM      4  H   UNL     1     -10.933   2.839 -13.162  1.00  0.00    +0.170 HD
ENDROOT
BRANCH   1   5
ATOM      5  C   UNL     1     -11.334   4.053 -14.774  1.00  0.00    +0.043 A 
ATOM      6  C   UNL     1     -10.466   5.552 -16.994  1.00  0.00    -0.027 A 
ATOM      7  C   UNL     1     -11.564   5.967 -16.223  1.00  0.00    +0.008 A 
ATOM      8  C   UNL     1      -9.778   4.365 -16.655  1.00  0.00    +0.046 A 
ATOM      9  C   UNL     1     -11.995   5.225 -15.123  1.00  0.00    +0.026 A 
ATOM     10  C   UNL     1     -10.238   3.636 -15.545  1.00  0.00    +0.052 A 
ATOM     11  C   UNL     1     -10.060   6.400 -18.171  1.00  0.00    +0.046 C 
BRANCH   8  12
ATOM     12  N   UNL     1      -8.687   3.943 -17.432  1.00  0.00    -0.324 N 
ATOM     13  H   UNL     1      -8.809   3.947 -18.433  1.00  0.00    +0.170 HD
BRANCH  12  14
ATOM     14  C   UNL     1      -7.386   3.533 -17.155  1.00  0.00    +0.227 A 
ATOM     15  N   UNL     1      -6.354   4.386 -17.125  1.00  0.00    -0.221 NA
ATOM     16  N   UNL     1      -7.254   2.218 -16.915  1.00  0.00    -0.213 NA
ATOM     17  C   UNL     1      -5.144   3.878 -16.841  1.00  0.00    +0.117 A 
ATOM     18  C   UNL     1      -6.028   1.729 -16.621  1.00  0.00    +0.077 A 
ATOM     19  C   UNL     1      -4.921   2.550 -16.578  1.00  0.00    +0.049 A 
BRANCH  18  20
ATOM     20  C   UNL     1      -5.966   0.280 -16.363  1.00  0.00    +0.019 A 
ATOM     21  C   UNL     1      -4.906  -0.533 -16.795  1.00  0.00    +0.013 A 
ATOM     22  C   UNL     1      -6.977  -0.374 -15.654  1.00  0.00    +0.121 A 
ATOM     23  C   UNL     1      -4.904  -1.902 -16.524  1.00  0.00    +0.021 A 
ATOM     24  N   UNL     1      -7.008  -1.704 -15.379  1.00  0.00    -0.264 NA
ATOM     25  C   UNL     1      -5.969  -2.436 -15.821  1.00  0.00    +0.111 A 
ENDBRANCH  18  20
ENDBRANCH  12  14
ENDBRANCH   8  12
ENDBRANCH   1   5
BRANCH   2  26
ATOM     26  C   UNL     1     -13.049   2.030 -12.071  1.00  0.00    +0.040 A 
ATOM     27  C   UNL     1     -11.910   1.284 -11.758  1.00  0.00    +0.014 A 
ATOM     28  C   UNL     1     -14.209   1.878 -11.301  1.00  0.00    +0.014 A 
ATOM     29  C   UNL     1     -11.934   0.374 -10.698  1.00  0.00    +0.006 A 
ATOM     30  C   UNL     1     -14.228   0.967 -10.241  1.00  0.00    +0.006 A 
ATOM     31  C   UNL     1     -13.091   0.208  -9.922  1.00  0.00    -0.034 A 
BRANCH  31  32
ATOM     32  C   UNL     1     -13.117  -0.777  -8.769  1.00  0.00    +0.120 C 
BRANCH  32  33
ATOM     33  N   UNL     1     -12.803  -2.173  -9.078  1.00  0.00    -0.297 NA
ATOM     34  C   UNL     1     -12.276  -2.970  -7.962  1.00  0.00    +0.100 C 
ATOM     35  C   UNL     1     -13.838  -2.882  -9.843  1.00  0.00    +0.100 C 
ATOM     36  C   UNL     1     -13.201  -4.125  -7.512  1.00  0.00    +0.099 C 
ATOM     37  C   UNL     1     -13.549  -4.398  -9.917  1.00  0.00    +0.099 C 
ATOM     38  N   UNL     1     -13.601  -5.053  -8.592  1.00  0.00    -0.304 NA
ATOM     39  C   UNL     1     -12.798  -6.271  -8.590  1.00  0.00    +0.105 C 
ENDBRANCH  32  33
ENDBRANCH  31  32
ENDBRANCH   2  26
TORSDOF 7
ENDMDL
MODEL 2
REMARK VINA RESULT:    -9.883      1.524      2.075
REMARK INTER + INTRA:         -14.861
REMARK INTER:                 -13.957
REMARK INTRA:                  -0.904
REMARK UNBOUND:                -0.933
REMARK SMILES Cc1ccc(NC(=O)c2ccc(CN3CCN(C)CC3)cc2)cc1Nc1nccc(-c2cccnc2)n1
REMARK SMILES IDX 6 1 7 2 8 3 5 5 2 6 3 7 24 8 4 9 23 10 1 11 25 12 26 14
REMARK SMILES IDX 27 15 37 16 28 17 30 18 29 19 31 20 32 21 36 22 33 23 35 24
REMARK SMILES IDX 34 25 9 26 10 27 22 28 11 29 21 30 12 31 13 32 14 33 15 34
REMARK SMILES IDX 20 35 16 36 19 37 17 38 18 39
REMARK H PARENT 6 4 25 13
ROOT
ATOM      1  N   UNL     1     -11.664   3.268 -13.709  1.00  0.00    -0.322 N 
ATOM      2  C   UNL     1     -12.942   2.985 -13.260  1.00  0.00    +0.255 C 
ATOM      3  O   UNL     1     -13.994   3.429 -13.704  1.00  0.00    -0.269 OA
ATOM      4  H   UNL     1     -10.893   2.930 -13.148  1.00  0.00    +0.170 HD
ENDROOT
BRANCH   1   5
ATOM      5  C   UNL     1     -11.299   4.057 -14.821  1.00  0.00    +0.043 A 
ATOM      6  C   UNL     1     -10.439   5.495 -17.084  1.00  0.00    -0.027 A 
ATOM      7  C   UNL     1     -11.543   5.923 -16.329  1.00  0.00    +0.008 A 
ATOM      8  C   UNL     1      -9.741   4.326 -16.707  1.00  0.00    +0.046 A 
ATOM      9  C   UNL     1     -11.970   5.211 -15.208  1.00  0.00    +0.026 A 
ATOM     10  C   UNL     1     -10.197   3.627 -15.576  1.00  0.00    +0.052 A 
ATOM     11  C   UNL     1     -10.038   6.311 -18.285  1.00  0.00    +0.046 C 
BRANCH   8  12
ATOM     12  N   UNL     1      -8.644   3.891 -17.468  1.00  0.00    -0.324 N 
ATOM     13  H   UNL     1      -8.757   3.880 -18.470  1.00  0.00    +0.170 HD
BRANCH  12  14
ATOM     14  C   UNL     1      -7.345   3.484 -17.173  1.00  0.00    +0.227 A 
ATOM     15  N   UNL     1      -6.316   4.339 -17.129  1.00  0.00    -0.221 NA
ATOM     16  N   UNL     1      -7.215   2.169 -16.931  1.00  0.00    -0.213 NA
ATOM     17  C   UNL     1      -5.109   3.833 -16.829  1.00  0.00    +0.117 A 
ATOM     18  C   UNL     1      -5.992   1.683 -16.620  1.00  0.00    +0.077 A 
ATOM     19  C   UNL     1      -4.887   2.506 -16.563  1.00  0.00    +0.049 A 
BRANCH  18  20
ATOM     20  C   UNL     1      -5.930   0.234 -16.361  1.00  0.00    +0.019 A 
ATOM     21  C   UNL     1      -4.846  -0.571 -16.746  1.00  0.00    +0.013 A 
ATOM     22  C   UNL     1      -6.967  -0.428 -15.698  1.00  0.00    +0.121 A 
ATOM     23  C   UNL     1      -4.846  -1.940 -16.477  1.00  0.00    +0.021 A 
ATOM     24  N   UNL     1      -7.000  -1.759 -15.426  1.00  0.00    -0.264 NA
ATOM     25  C   UNL     1      -5.936  -2.483 -15.822  1.00  0.00    +0.111 A 
ENDBRANCH  18  20
ENDBRANCH  12  14
ENDBRANCH   8  12
ENDBRANCH   1   5
BRANCH   2  26
ATOM     26  C   UNL     1     -13.002   2.072 -12.082  1.00  0.00    +0.040 A 
ATOM     27  C   UNL     1     -14.210   1.961 -11.386  1.00  0.00    +0.014 A 
ATOM     28  C   UNL     1     -11.898   1.314 -11.676  1.00  0.00    +0.014 A 
ATOM     29  C   UNL     1     -14.307   1.118 -10.277  1.00  0.00    +0.006 A 
ATOM     30  C   UNL     1     -12.000   0.470 -10.566  1.00  0.00    +0.006 A 
ATOM     31  C   UNL     1     -13.206   0.357  -9.856  1.00  0.00    -0.034 A 
BRANCH  31  32
ATOM     32  C   UNL     1     -13.312  -0.562  -8.654  1.00  0.00    +0.120 C 
BRANCH  32  33
ATOM     33  N   UNL     1     -14.658  -0.876  -8.172  1.00  0.00    -0.297 NA
ATOM     34  C   UNL     1     -15.012  -2.301  -8.150  1.00  0.00    +0.100 C 
ATOM     35  C   UNL     1     -15.049  -0.175  -6.940  1.00  0.00    +0.100 C 
ATOM     36  C   UNL     1     -15.249  -2.877  -6.734  1.00  0.00    +0.099 C 
ATOM     37  C   UNL     1     -16.369  -0.735  -6.365  1.00  0.00    +0.099 C 
ATOM     38  N   UNL     1     -16.247  -2.142  -5.928  1.00  0.00    -0.304 NA
ATOM     39  C   UNL     1     -17.551  -2.799  -5.943  1.00  0.00    +0.105 C 
ENDBRANCH  32  33
ENDBRANCH  31  32
ENDBRANCH   2  26
TORSDOF 7
ENDMDL
MODEL 3
REMARK VINA RESULT:    -9.815      1.350      2.213
REMARK INTER + INTRA:         -14.764
REMARK INTER:                 -13.721
REMARK INTRA:                  -1.043
REMARK UNBOUND:                -0.933
REMARK SMILES Cc1ccc(NC(=O)c2ccc(CN3CCN(C)CC3)cc2)cc1Nc1nccc(-c2cccnc2)n1
REMARK SMILES IDX 6 1 7 2 8 3 5 5 2 6 3 7 24 8 4 9 23 10 1 11 25 12 26 14
REMARK SMILES IDX 27 15 37 16 28 17 30 18 29 19 31 20 32 21 36 22 33 23 35 24
REMARK SMILES IDX 34 25 9 26 10 27 22 28 11 29 21 30 12 31 13 32 14 33 15 34
REMARK SMILES IDX 20 35 16 36 19 37 17 38 18 39
REMARK H PARENT 6 4 25 13
ROOT
ATOM      1  N   UNL     1     -11.472   3.052 -13.508  1.00  0.00    -0.322 N 
ATOM      2  C   UNL     1     -12.755   2.625 -13.216  1.00  0.00    +0.255 C 
ATOM      3  O   UNL     1     -13.772   2.858 -13.857  1.00  0.00    -0.269 OA
ATOM      4  H   UNL     1     -10.761   2.893 -12.805  1.00  0.00    +0.170 HD
ENDROOT
BRANCH   1   5
ATOM      5  C   UNL     1     -11.044   3.775 -14.642  1.00  0.00    +0.043 A 
ATOM      6  C   UNL     1     -10.067   5.070 -16.944  1.00  0.00    -0.027 A 
ATOM      7  C   UNL     1     -11.145   5.601 -16.215  1.00  0.00    +0.008 A 
ATOM      8  C   UNL     1      -9.456   3.869 -16.521  1.00  0.00    +0.046 A 
ATOM      9  C   UNL     1     -11.629   4.959 -15.074  1.00  0.00    +0.026 A 
ATOM     10  C   UNL     1      -9.969   3.243 -15.372  1.00  0.00    +0.052 A 
ATOM     11  C   UNL     1      -9.601   5.814 -18.168  1.00  0.00    +0.046 C 
BRANCH   8  12
ATOM     12  N   UNL     1      -8.387   3.332 -17.256  1.00  0.00    -0.324 N 
ATOM     13  H   UNL     1      -8.058   3.868 -18.044  1.00  0.00    +0.170 HD
BRANCH  12  14
ATOM     14  C   UNL     1      -7.591   2.196 -17.142  1.00  0.00    +0.227 A 
ATOM     15  N   UNL     1      -6.716   1.833 -18.087  1.00  0.00    -0.221 NA
ATOM     16  N   UNL     1      -7.770   1.501 -16.005  1.00  0.00    -0.213 NA
ATOM     17  C   UNL     1      -5.997   0.721 -17.866  1.00  0.00    +0.117 A 
ATOM     18  C   UNL     1      -7.028   0.390 -15.798  1.00  0.00    +0.077 A 
ATOM     19  C   UNL     1      -6.111  -0.044 -16.733  1.00  0.00    +0.049 A 
BRANCH  18  20
ATOM     20  C   UNL     1      -7.275  -0.313 -14.527  1.00  0.00    +0.019 A 
ATOM     21  C   UNL     1      -8.362  -0.023 -13.687  1.00  0.00    +0.013 A 
ATOM     22  C   UNL     1      -6.426  -1.332 -14.085  1.00  0.00    +0.121 A 
ATOM     23  C   UNL     1      -8.542  -0.720 -12.492  1.00  0.00    +0.021 A 
ATOM     24  N   UNL     1      -6.572  -2.025 -12.926  1.00  0.00    -0.264 NA
ATOM     25  C   UNL     1      -7.628  -1.702 -12.157  1.00  0.00    +0.111 A 
ENDBRANCH  18  20
ENDBRANCH  12  14
ENDBRANCH   8  12
ENDBRANCH   1   5
BRANCH   2  26
ATOM     26  C   UNL     1     -12.878   1.833 -11.959  1.00  0.00    +0.040 A 
ATOM     27  C   UNL     1     -14.118   1.795 -11.314  1.00  0.00    +0.014 A 
ATOM     28  C   UNL     1     -11.801   1.115 -11.427  1.00  0.00    +0.014 A 
ATOM     29  C   UNL     1     -14.276   1.066 -10.133  1.00  0.00    +0.006 A 
ATOM     30  C   UNL     1     -11.963   0.385 -10.245  1.00  0.00    +0.006 A 
ATOM     31  C   UNL     1     -13.202   0.346  -9.586  1.00  0.00    -0.034 A 
BRANCH  31  32
ATOM     32  C   UNL     1     -13.372  -0.449  -8.307  1.00  0.00    +0.120 C 
BRANCH  32  33
ATOM     33  N   UNL     1     -13.440  -1.906  -8.432  1.00  0.00    -0.297 NA
ATOM     34  C   UNL     1     -13.956  -2.413  -9.711  1.00  0.00    +0.100 C 
ATOM     35  C   UNL     1     -12.235  -2.619  -7.985  1.00  0.00    +0.100 C 
ATOM     36  C   UNL     1     -12.922  -3.201 -10.549  1.00  0.00    +0.099 C 
ATOM     37  C   UNL     1     -12.285  -4.114  -8.372  1.00  0.00    +0.099 C 
ATOM     38  N   UNL     1     -12.275  -4.323  -9.836  1.00  0.00    -0.304 NA
ATOM     39  C   UNL     1     -12.883  -5.606 -10.174  1.00  0.00    +0.105 C 
ENDBRANCH  32  33
ENDBRANCH  31  32
ENDBRANCH   2  26
TORSDOF 7
ENDMDL
MODEL 4
REMARK VINA RESULT:    -9.605      3.197      8.057
REMARK INTER + INTRA:         -14.468
REMARK INTER:                 -13.496
REMARK INTRA:                  -0.972
REMARK UNBOUND:                -0.933
REMARK SMILES Cc1ccc(NC(=O)c2ccc(CN3CCN(C)CC3)cc2)cc1Nc1nccc(-c2cccnc2)n1
REMARK SMILES IDX 6 1 7 2 8 3 5 5 2 6 3 7 24 8 4 9 23 10 1 11 25 12 26 14
REMARK SMILES IDX 27 15 37 16 28 17 30 18 29 19 31 20 32 21 36 22 33 23 35 24
REMARK SMILES IDX 34 25 9 26 10 27 22 28 11 29 21 30 12 31 13 32 14 33 15 34
REMARK SMILES IDX 20 35 16 36 19 37 17 38 18 39
REMARK H PARENT 6 4 25 13
ROOT
ATOM      1  N   UNL     1      -7.113   1.842 -16.281  1.00  0.00    -0.322 N 
ATOM      2  C   UNL     1      -6.318   1.635 -15.167  1.00  0.00    +0.255 C 
ATOM      3  O   UNL     1      -5.914   2.485 -14.383  1.00  0.00    -0.269 OA
ATOM      4  H   UNL     1      -7.246   1.057 -16.905  1.00  0.00    +0.170 HD
ENDROOT
BRANCH   1   5
ATOM      5  C   UNL     1      -7.696   3.055 -16.708  1.00  0.00    +0.043 A 
ATOM      6  C   UNL     1      -8.991   5.452 -17.416  1.00  0.00    -0.027 A 
ATOM      7  C   UNL     1      -7.793   5.063 -18.039  1.00  0.00    +0.008 A 
ATOM      8  C   UNL     1      -9.564   4.631 -16.419  1.00  0.00    +0.046 A 
ATOM      9  C   UNL     1      -7.151   3.875 -17.688  1.00  0.00    +0.026 A 
ATOM     10  C   UNL     1      -8.891   3.443 -16.083  1.00  0.00    +0.052 A 
ATOM     11  C   UNL     1      -9.626   6.750 -17.843  1.00  0.00    +0.046 C 
BRANCH   8  12
ATOM     12  N   UNL     1     -10.755   5.025 -15.789  1.00  0.00    -0.324 N 
ATOM     13  H   UNL     1     -11.072   5.967 -15.957  1.00  0.00    +0.170 HD
BRANCH  12  14
ATOM     14  C   UNL     1     -11.688   4.393 -14.972  1.00  0.00    +0.227 A 
ATOM     15  N   UNL     1     -12.921   4.877 -14.779  1.00  0.00    -0.221 NA
ATOM     16  N   UNL     1     -11.250   3.258 -14.401  1.00  0.00    -0.213 NA
ATOM     17  C   UNL     1     -13.737   4.178 -13.974  1.00  0.00    +0.117 A 
ATOM     18  C   UNL     1     -12.093   2.565 -13.602  1.00  0.00    +0.077 A 
ATOM     19  C   UNL     1     -13.375   3.009 -13.356  1.00  0.00    +0.049 A 
BRANCH  18  20
ATOM     20  C   UNL     1     -11.544   1.328 -13.019  1.00  0.00    +0.019 A 
ATOM     21  C   UNL     1     -11.719   0.968 -11.674  1.00  0.00    +0.013 A 
ATOM     22  C   UNL     1     -10.810   0.426 -13.794  1.00  0.00    +0.121 A 
ATOM     23  C   UNL     1     -11.171  -0.215 -11.177  1.00  0.00    +0.021 A 
ATOM     24  N   UNL     1     -10.260  -0.731 -13.340  1.00  0.00    -0.264 NA
ATOM     25  C   UNL     1     -10.455  -1.023 -12.041  1.00  0.00    +0.111 A 
ENDBRANCH  18  20
ENDBRANCH  12  14
ENDBRANCH   8  12
ENDBRANCH   1   5
BRANCH   2  26
ATOM     26  C   UNL     1      -5.895   0.221 -14.956  1.00  0.00    +0.040 A 
ATOM     27  C   UNL     1      -6.369  -0.756 -15.837  1.00  0.00    +0.014 A 
ATOM     28  C   UNL     1      -5.025  -0.145 -13.921  1.00  0.00    +0.014 A 
ATOM     29  C   UNL     1      -5.997  -2.092 -15.672  1.00  0.00    +0.006 A 
ATOM     30  C   UNL     1      -4.655  -1.483 -13.761  1.00  0.00    +0.006 A 
ATOM     31  C   UNL     1      -5.131  -2.473 -14.636  1.00  0.00    -0.034 A 
BRANCH  31  32
ATOM     32  C   UNL     1      -4.723  -3.922 -14.458  1.00  0.00    +0.120 C 
BRANCH  32  33
ATOM     33  N   UNL     1      -4.836  -4.794 -15.629  1.00  0.00    -0.297 NA
ATOM     34  C   UNL     1      -3.596  -5.007 -16.388  1.00  0.00    +0.100 C 
ATOM     35  C   UNL     1      -5.580  -6.040 -15.399  1.00  0.00    +0.100 C 
ATOM     36  C   UNL     1      -3.076  -6.462 -16.364  1.00  0.00    +0.099 C 
ATOM     37  C   UNL     1      -5.448  -7.008 -16.596  1.00  0.00    +0.099 C 
ATOM     38  N   UNL     1      -4.060  -7.478 -16.797  1.00  0.00    -0.304 NA
ATOM     39  C   UNL     1      -3.852  -7.883 -18.183  1.00  0.00    +0.105 C 
ENDBRANCH  32  33
ENDBRANCH  31  32
ENDBRANCH   2  26
TORSDOF 7
ENDMDL
MODEL 5
REMARK VINA RESULT:    -9.526      1.654      2.488
REMARK INTER + INTRA:         -14.357
REMARK INTER:                 -13.487
REMARK INTRA:                  -0.870
REMARK UNBOUND:                -0.933
REMARK SMILES Cc1ccc(NC(=O)c2ccc(CN3CCN(C)CC3)cc2)cc1Nc1nccc(-c2cccnc2)n1
REMARK SMILES IDX 6 1 7 2 8 3 5 5 2 6 3 7 24 8 4 9 23 10 1 11 25 12 26 14
REMARK SMILES IDX 27 15 37 16 28 17 30 18 29 19 31 20 32 21 36 22 33 23 35 24
REMARK SMILES IDX 34 25 9 26 10 27 22 28 11 29 21 30 12 31 13 32 14 33 15 34
REMARK SMILES IDX 20 35 16 36 19 37 17 38 18 39
REMARK H PARENT 6 4 25 13
ROOT
ATOM      1  N   UNL     1     -11.692   2.881 -13.323  1.00  0.00    -0.322 N 
ATOM      2  C   UNL     1     -12.970   2.684 -12.832  1.00  0.00    +0.255 C 
ATOM      3  O   UNL     1     -13.998   3.232 -13.212  1.00  0.00    -0.269 OA
ATOM      4  H   UNL     1     -10.930   2.457 -12.810  1.00  0.00    +0.170 HD
ENDROOT
BRANCH   1   5
ATOM      5  C   UNL     1     -11.306   3.687 -14.415  1.00  0.00    +0.043 A 
ATOM      6  C   UNL     1     -10.419   5.149 -16.652  1.00  0.00    -0.027 A 
ATOM      7  C   UNL     1     -11.441   5.640 -15.823  1.00  0.00    +0.008 A 
ATOM      8  C   UNL     1      -9.818   3.903 -16.364  1.00  0.00    +0.046 A 
ATOM      9  C   UNL     1     -11.881   4.916 -14.715  1.00  0.00    +0.026 A 
ATOM     10  C   UNL     1     -10.285   3.195 -15.244  1.00  0.00    +0.052 A 
ATOM     11  C   UNL     1      -9.998   5.983 -17.834  1.00  0.00    +0.046 C 
BRANCH   8  12
ATOM     12  N   UNL     1      -8.803   3.407 -17.198  1.00  0.00    -0.324 N 
ATOM     13  H   UNL     1      -9.036   3.267 -18.169  1.00  0.00    +0.170 HD
BRANCH  12  14
ATOM     14  C   UNL     1      -7.463   3.076 -17.021  1.00  0.00    +0.227 A 
ATOM     15  N   UNL     1      -6.484   3.988 -17.075  1.00  0.00    -0.221 NA
ATOM     16  N   UNL     1      -7.236   1.772 -16.788  1.00  0.00    -0.213 NA
ATOM     17  C   UNL     1      -5.227   3.553 -16.884  1.00  0.00    +0.117 A 
ATOM     18  C   UNL     1      -5.964   1.359 -16.588  1.00  0.00    +0.077 A 
ATOM     19  C   UNL     1      -4.907   2.243 -16.634  1.00  0.00    +0.049 A 
BRANCH  18  20
ATOM     20  C   UNL     1      -5.797  -0.082 -16.331  1.00  0.00    +0.019 A 
ATOM     21  C   UNL     1      -4.676  -0.814 -16.751  1.00  0.00    +0.013 A 
ATOM     22  C   UNL     1      -6.766  -0.811 -15.633  1.00  0.00    +0.121 A 
ATOM     23  C   UNL     1      -4.575  -2.179 -16.481  1.00  0.00    +0.021 A 
ATOM     24  N   UNL     1      -6.700  -2.140 -15.360  1.00  0.00    -0.264 NA
ATOM     25  C   UNL     1      -5.604  -2.792 -15.791  1.00  0.00    +0.111 A 
ENDBRANCH  18  20
ENDBRANCH  12  14
ENDBRANCH   8  12
ENDBRANCH   1   5
BRANCH   2  26
ATOM     26  C   UNL     1     -13.061   1.727 -11.692  1.00  0.00    +0.040 A 
ATOM     27  C   UNL     1     -11.928   0.981 -11.356  1.00  0.00    +0.014 A 
ATOM     28  C   UNL     1     -14.235   1.577 -10.943  1.00  0.00    +0.014 A 
ATOM     29  C   UNL     1     -11.972   0.073 -10.295  1.00  0.00    +0.006 A 
ATOM     30  C   UNL     1     -14.274   0.668  -9.882  1.00  0.00    +0.006 A 
ATOM     31  C   UNL     1     -13.143  -0.091  -9.540  1.00  0.00    -0.034 A 
BRANCH  31  32
ATOM     32  C   UNL     1     -13.191  -1.074  -8.386  1.00  0.00    +0.120 C 
BRANCH  32  33
ATOM     33  N   UNL     1     -12.281  -0.830  -7.266  1.00  0.00    -0.297 NA
ATOM     34  C   UNL     1     -11.025  -1.591  -7.287  1.00  0.00    +0.100 C 
ATOM     35  C   UNL     1     -12.080   0.588  -6.934  1.00  0.00    +0.100 C 
ATOM     36  C   UNL     1      -9.756  -0.722  -7.451  1.00  0.00    +0.099 C 
ATOM     37  C   UNL     1     -10.933   0.773  -5.915  1.00  0.00    +0.099 C 
ATOM     38  N   UNL     1      -9.619   0.365  -6.458  1.00  0.00    -0.304 NA
ATOM     39  C   UNL     1      -8.707   0.005  -5.377  1.00  0.00    +0.105 C 
ENDBRANCH  32  33
ENDBRANCH  31  32
ENDBRANCH   2  26
TORSDOF 7
ENDMDL
MODEL 6
REMARK VINA RESULT:    -9.526      2.731      6.063
REMARK INTER + INTRA:         -14.356
REMARK INTER:                 -13.689
REMARK INTRA:                  -0.667
REMARK UNBOUND:                -0.933
REMARK SMILES Cc1ccc(NC(=O)c2ccc(CN3CCN(C)CC3)cc2)cc1Nc1nccc(-c2cccnc2)n1
REMARK SMILES IDX 6 1 7 2 8 3 5 5 2 6 3 7 24 8 4 9 23 10 1 11 25 12 26 14
REMARK SMILES IDX 27 15 37 16 28 17 30 18 29 19 31 20 32 21 36 22 33 23 35 24
REMARK SMILES IDX 34 25 9 26 10 27 22 28 11 29 21 30 12 31 13 32 14 33 15 34
REMARK SMILES IDX 20 35 16 36 19 37 17 38 18 39
REMARK H PARENT 6 4 25 13
ROOT
ATOM      1  N   UNL     1      -8.968   0.481 -12.648  1.00  0.00    -0.322 N 
ATOM      2  C   UNL     1     -10.068  -0.324 -12.884  1.00  0.00    +0.255 C 
ATOM      3  O   UNL     1     -10.465  -0.728 -13.970  1.00  0.00    -0.269 OA
ATOM      4  H   UNL     1      -8.853   0.842 -11.709  1.00  0.00    +0.170 HD
ENDROOT
BRANCH   1   5
ATOM      5  C   UNL     1      -8.022   0.942 -13.589  1.00  0.00    +0.043 A 
ATOM      6  C   UNL     1      -6.272   1.984 -15.533  1.00  0.00    -0.027 A 
ATOM      7  C   UNL     1      -5.822   1.068 -14.568  1.00  0.00    +0.008 A 
ATOM      8  C   UNL     1      -7.625   2.393 -15.537  1.00  0.00    +0.046 A 
ATOM      9  C   UNL     1      -6.689   0.552 -13.605  1.00  0.00    +0.026 A 
ATOM     10  C   UNL     1      -8.473   1.860 -14.551  1.00  0.00    +0.052 A 
ATOM     11  C   UNL     1      -5.279   2.503 -16.540  1.00  0.00    +0.046 C 
BRANCH   8  12
ATOM     12  N   UNL     1      -8.073   3.317 -16.495  1.00  0.00    -0.324 N 
ATOM     13  H   UNL     1      -7.570   3.352 -17.368  1.00  0.00    +0.170 HD
BRANCH  12  14
ATOM     14  C   UNL     1      -9.125   4.227 -16.563  1.00  0.00    +0.227 A 
ATOM     15  N   UNL     1     -10.092   4.278 -15.640  1.00  0.00    -0.221 NA
ATOM     16  N   UNL     1      -9.083   5.049 -17.625  1.00  0.00    -0.213 NA
ATOM     17  C   UNL     1     -11.053   5.201 -15.806  1.00  0.00    +0.117 A 
ATOM     18  C   UNL     1     -10.055   5.978 -17.767  1.00  0.00    +0.077 A 
ATOM     19  C   UNL     1     -11.085   6.082 -16.856  1.00  0.00    +0.049 A 
BRANCH  18  20
ATOM     20  C   UNL     1      -9.937   6.846 -18.952  1.00  0.00    +0.019 A 
ATOM     21  C   UNL     1      -9.580   8.201 -18.879  1.00  0.00    +0.013 A 
ATOM     22  C   UNL     1     -10.172   6.352 -20.238  1.00  0.00    +0.121 A 
ATOM     23  C   UNL     1      -9.488   8.976 -20.036  1.00  0.00    +0.021 A 
ATOM     24  N   UNL     1     -10.095   7.080 -21.383  1.00  0.00    -0.264 NA
ATOM     25  C   UNL     1      -9.755   8.376 -21.253  1.00  0.00    +0.111 A 
ENDBRANCH  18  20
ENDBRANCH  12  14
ENDBRANCH   8  12
ENDBRANCH   1   5
BRANCH   2  26
ATOM     26  C   UNL     1     -10.851  -0.684 -11.667  1.00  0.00    +0.040 A 
ATOM     27  C   UNL     1     -11.490   0.338 -10.959  1.00  0.00    +0.014 A 
ATOM     28  C   UNL     1     -10.981  -2.009 -11.235  1.00  0.00    +0.014 A 
ATOM     29  C   UNL     1     -12.233   0.043  -9.814  1.00  0.00    +0.006 A 
ATOM     30  C   UNL     1     -11.726  -2.300 -10.089  1.00  0.00    +0.006 A 
ATOM     31  C   UNL     1     -12.366  -1.280  -9.367  1.00  0.00    -0.034 A 
BRANCH  31  32
ATOM     32  C   UNL     1     -13.175  -1.603  -8.126  1.00  0.00    +0.120 C 
BRANCH  32  33
ATOM     33  N   UNL     1     -14.580  -1.190  -8.121  1.00  0.00    -0.297 NA
ATOM     34  C   UNL     1     -15.556  -2.244  -8.432  1.00  0.00    +0.100 C 
ATOM     35  C   UNL     1     -14.978  -0.373  -6.966  1.00  0.00    +0.100 C 
ATOM     36  C   UNL     1     -16.499  -2.604  -7.261  1.00  0.00    +0.099 C 
ATOM     37  C   UNL     1     -16.510  -0.185  -6.906  1.00  0.00    +0.099 C 
ATOM     38  N   UNL     1     -17.230  -1.457  -6.681  1.00  0.00    -0.304 NA
ATOM     39  C   UNL     1     -18.596  -1.369  -7.186  1.00  0.00    +0.105 C 
ENDBRANCH  32  33
ENDBRANCH  31  32
ENDBRANCH   2  26
TORSDOF 7
ENDMDL
MODEL 7
REMARK VINA RESULT:    -9.506      2.382      5.587
REMARK INTER + INTRA:         -14.329
REMARK INTER:                 -13.280
REMARK INTRA:                  -1.049
REMARK UNBOUND:                -0.933
REMARK SMILES Cc1ccc(NC(=O)c2ccc(CN3CCN(C)CC3)cc2)cc1Nc1nccc(-c2cccnc2)n1
REMARK SMILES IDX 6 1 7 2 8 3 5 5 2 6 3 7 24 8 4 9 23 10 1 11 25 12 26 14
REMARK SMILES IDX 27 15 37 16 28 17 30 18 29 19 31 20 32 21 36 22 33 23 35 24
REMARK SMILES IDX 34 25 9 26 10 27 22 28 11 29 21 30 12 31 13 32 14 33 15 34
REMARK SMILES IDX 20 35 16 36 19 37 17 38 18 39
REMARK H PARENT 6 4 25 13
ROOT
ATOM      1  N   UNL     1      -8.688   0.109 -12.791  1.00  0.00    -0.322 N 
ATOM      2  C   UNL     1      -9.969  -0.338 -13.063  1.00  0.00    +0.255 C 
ATOM      3  O   UNL     1     -10.509  -0.403 -14.161  1.00  0.00    -0.269 OA
ATOM      4  H   UNL     1      -8.439   0.232 -11.818  1.00  0.00    +0.170 HD
ENDROOT
BRANCH   1   5
ATOM      5  C   UNL     1      -7.701   0.506 -13.719  1.00  0.00    +0.043 A 
ATOM      6  C   UNL     1      -5.843   1.455 -15.610  1.00  0.00    -0.027 A 
ATOM      7  C   UNL     1      -5.563   0.328 -14.819  1.00  0.00    +0.008 A 
ATOM      8  C   UNL     1      -7.077   2.127 -15.463  1.00  0.00    +0.046 A 
ATOM      9  C   UNL     1      -6.483  -0.142 -13.882  1.00  0.00    +0.026 A 
ATOM     10  C   UNL     1      -7.982   1.633 -14.507  1.00  0.00    +0.052 A 
ATOM     11  C   UNL     1      -4.800   1.909 -16.598  1.00  0.00    +0.046 C 
BRANCH   8  12
ATOM     12  N   UNL     1      -7.353   3.260 -16.245  1.00  0.00    -0.324 N 
ATOM     13  H   UNL     1      -6.628   3.572 -16.872  1.00  0.00    +0.170 HD
BRANCH  12  14
ATOM     14  C   UNL     1      -8.458   4.090 -16.414  1.00  0.00    +0.227 A 
ATOM     15  N   UNL     1      -8.477   5.090 -17.303  1.00  0.00    -0.221 NA
ATOM     16  N   UNL     1      -9.501   3.799 -15.618  1.00  0.00    -0.213 NA
ATOM     17  C   UNL     1      -9.600   5.822 -17.382  1.00  0.00    +0.117 A 
ATOM     18  C   UNL     1     -10.626   4.542 -15.722  1.00  0.00    +0.077 A 
ATOM     19  C   UNL     1     -10.712   5.591 -16.612  1.00  0.00    +0.049 A 
BRANCH  18  20
ATOM     20  C   UNL     1     -11.727   4.158 -14.822  1.00  0.00    +0.019 A 
ATOM     21  C   UNL     1     -11.597   3.185 -13.818  1.00  0.00    +0.013 A 
ATOM     22  C   UNL     1     -12.985   4.759 -14.919  1.00  0.00    +0.121 A 
ATOM     23  C   UNL     1     -12.678   2.860 -12.998  1.00  0.00    +0.021 A 
ATOM     24  N   UNL     1     -14.058   4.462 -14.140  1.00  0.00    -0.264 NA
ATOM     25  C   UNL     1     -13.877   3.519 -13.197  1.00  0.00    +0.111 A 
ENDBRANCH  18  20
ENDBRANCH  12  14
ENDBRANCH   8  12
ENDBRANCH   1   5
BRANCH   2  26
ATOM     26  C   UNL     1     -10.760  -0.735 -11.863  1.00  0.00    +0.040 A 
ATOM     27  C   UNL     1     -11.428   0.262 -11.145  1.00  0.00    +0.014 A 
ATOM     28  C   UNL     1     -10.868  -2.070 -11.456  1.00  0.00    +0.014 A 
ATOM     29  C   UNL     1     -12.179  -0.069 -10.014  1.00  0.00    +0.006 A 
ATOM     30  C   UNL     1     -11.622  -2.396 -10.324  1.00  0.00    +0.006 A 
ATOM     31  C   UNL     1     -12.291  -1.402  -9.593  1.00  0.00    -0.034 A 
BRANCH  31  32
ATOM     32  C   UNL     1     -13.108  -1.763  -8.368  1.00  0.00    +0.120 C 
BRANCH  32  33
ATOM     33  N   UNL     1     -14.506  -1.326  -8.347  1.00  0.00    -0.297 NA
ATOM     34  C   UNL     1     -15.510  -2.394  -8.443  1.00  0.00    +0.100 C 
ATOM     35  C   UNL     1     -14.826  -0.338  -7.307  1.00  0.00    +0.100 C 
ATOM     36  C   UNL     1     -16.389  -2.557  -7.182  1.00  0.00    +0.099 C 
ATOM     37  C   UNL     1     -16.350  -0.112  -7.191  1.00  0.00    +0.099 C 
ATOM     38  N   UNL     1     -17.071  -1.322  -6.740  1.00  0.00    -0.304 NA
ATOM     39  C   UNL     1     -18.463  -1.282  -7.177  1.00  0.00    +0.105 C 
ENDBRANCH  32  33
ENDBRANCH  31  32
ENDBRANCH   2  26
TORSDOF 7
ENDMDL
MODEL 8
REMARK VINA RESULT:    -9.424      1.855      2.947
REMARK INTER + INTRA:         -14.214
REMARK INTER:                 -13.440
REMARK INTRA:                  -0.773
REMARK UNBOUND:                -0.933
REMARK SMILES Cc1ccc(NC(=O)c2ccc(CN3CCN(C)CC3)cc2)cc1Nc1nccc(-c2cccnc2)n1
REMARK SMILES IDX 6 1 7 2 8 3 5 5 2 6 3 7 24 8 4 9 23 10 1 11 25 12 26 14
REMARK SMILES IDX 27 15 37 16 28 17 30 18 29 19 31 20 32 21 36 22 33 23 35 24
REMARK SMILES IDX 34 25 9 26 10 27 22 28 11 29 21 30 12 31 13 32 14 33 15 34
REMARK SMILES IDX 20 35 16 36 19 37 17 38 18 39
REMARK H PARENT 6 4 25 13
ROOT
ATOM      1  N   UNL     1     -11.087   2.508 -13.488  1.00  0.00    -0.322 N 
ATOM      2  C   UNL     1     -12.443   2.438 -13.221  1.00  0.00    +0.255 C 
ATOM      3  O   UNL     1     -13.351   2.911 -13.893  1.00  0.00    -0.269 OA
ATOM      4  H   UNL     1     -10.457   2.188 -12.764  1.00  0.00    +0.170 HD
ENDROOT
BRANCH   1   5
ATOM      5  C   UNL     1     -10.462   3.062 -14.626  1.00  0.00    +0.043 A 
ATOM      6  C   UNL     1      -9.145   3.991 -16.935  1.00  0.00    -0.027 A 
ATOM      7  C   UNL     1     -10.006   4.827 -16.205  1.00  0.00    +0.008 A 
ATOM      8  C   UNL     1      -8.929   2.661 -16.509  1.00  0.00    +0.046 A 
ATOM      9  C   UNL     1     -10.659   4.367 -15.061  1.00  0.00    +0.026 A 
ATOM     10  C   UNL     1      -9.604   2.225 -15.356  1.00  0.00    +0.052 A 
ATOM     11  C   UNL     1      -8.478   4.553 -18.163  1.00  0.00    +0.046 C 
BRANCH   8  12
ATOM     12  N   UNL     1      -8.077   1.821 -17.244  1.00  0.00    -0.324 N 
ATOM     13  H   UNL     1      -8.101   1.911 -18.248  1.00  0.00    +0.170 HD
BRANCH  12  14
ATOM     14  C   UNL     1      -7.121   0.865 -16.917  1.00  0.00    +0.227 A 
ATOM     15  N   UNL     1      -7.367  -0.135 -16.061  1.00  0.00    -0.221 NA
ATOM     16  N   UNL     1      -5.938   1.025 -17.534  1.00  0.00    -0.213 NA
ATOM     17  C   UNL     1      -6.369  -1.002 -15.825  1.00  0.00    +0.117 A 
ATOM     18  C   UNL     1      -4.951   0.133 -17.290  1.00  0.00    +0.077 A 
ATOM     19  C   UNL     1      -5.134  -0.917 -16.416  1.00  0.00    +0.049 A 
BRANCH  18  20
ATOM     20  C   UNL     1      -3.687   0.370 -18.010  1.00  0.00    +0.019 A 
ATOM     21  C   UNL     1      -3.342  -0.294 -19.197  1.00  0.00    +0.013 A 
ATOM     22  C   UNL     1      -2.749   1.294 -17.540  1.00  0.00    +0.121 A 
ATOM     23  C   UNL     1      -2.128  -0.029 -19.832  1.00  0.00    +0.021 A 
ATOM     24  N   UNL     1      -1.557   1.570 -18.131  1.00  0.00    -0.264 NA
ATOM     25  C   UNL     1      -1.276   0.900 -19.264  1.00  0.00    +0.111 A 
ENDBRANCH  18  20
ENDBRANCH  12  14
ENDBRANCH   8  12
ENDBRANCH   1   5
BRANCH   2  26
ATOM     26  C   UNL     1     -12.794   1.741 -11.950  1.00  0.00    +0.040 A 
ATOM     27  C   UNL     1     -14.105   1.842 -11.475  1.00  0.00    +0.014 A 
ATOM     28  C   UNL     1     -11.859   0.977 -11.242  1.00  0.00    +0.014 A 
ATOM     29  C   UNL     1     -14.474   1.205 -10.288  1.00  0.00    +0.006 A 
ATOM     30  C   UNL     1     -12.233   0.340 -10.055  1.00  0.00    +0.006 A 
ATOM     31  C   UNL     1     -13.545   0.441  -9.566  1.00  0.00    -0.034 A 
BRANCH  31  32
ATOM     32  C   UNL     1     -13.946  -0.254  -8.279  1.00  0.00    +0.120 C 
BRANCH  32  33
ATOM     33  N   UNL     1     -13.891  -1.718  -8.268  1.00  0.00    -0.297 NA
ATOM     34  C   UNL     1     -14.392  -2.384  -9.478  1.00  0.00    +0.100 C 
ATOM     35  C   UNL     1     -12.620  -2.282  -7.795  1.00  0.00    +0.100 C 
ATOM     36  C   UNL     1     -13.315  -3.158 -10.272  1.00  0.00    +0.099 C 
ATOM     37  C   UNL     1     -12.551  -3.806  -8.041  1.00  0.00    +0.099 C 
ATOM     38  N   UNL     1     -12.558  -4.151  -9.479  1.00  0.00    -0.304 NA
ATOM     39  C   UNL     1     -13.061  -5.506  -9.679  1.00  0.00    +0.105 C 
ENDBRANCH  32  33
ENDBRANCH  31  32
ENDBRANCH   2  26
TORSDOF 7
ENDMDL
MODEL 9
REMARK VINA RESULT:    -9.394      1.980      2.902
REMARK INTER + INTRA:         -14.172
REMARK INTER:                 -13.492
REMARK INTRA:                  -0.680
REMARK UNBOUND:                -0.933
REMARK SMILES Cc1ccc(NC(=O)c2ccc(CN3CCN(C)CC3)cc2)cc1Nc1nccc(-c2cccnc2)n1
REMARK SMILES IDX 6 1 7 2 8 3 5 5 2 6 3 7 24 8 4 9 23 10 1 11 25 12 26 14
REMARK SMILES IDX 27 15 37 16 28 17 30 18 29 19 31 20 32 21 36 22 33 23 35 24
REMARK SMILES IDX 34 25 9 26 10 27 22 28 11 29 21 30 12 31 13 32 14 33 15 34
REMARK SMILES IDX 20 35 16 36 19 37 17 38 18 39
REMARK H PARENT 6 4 25 13
ROOT
ATOM      1  N   UNL     1     -11.646   2.855 -13.327  1.00  0.00    -0.322 N 
ATOM      2  C   UNL     1     -12.913   2.763 -12.778  1.00  0.00    +0.255 C 
ATOM      3  O   UNL     1     -13.888   3.448 -13.060  1.00  0.00    -0.269 OA
ATOM      4  H   UNL     1     -10.913   2.311 -12.889  1.00  0.00    +0.170 HD
ENDROOT
BRANCH   1   5
ATOM      5  C   UNL     1     -11.224   3.694 -14.380  1.00  0.00    +0.043 A 
ATOM      6  C   UNL     1     -10.247   5.235 -16.525  1.00  0.00    -0.027 A 
ATOM      7  C   UNL     1     -11.395   5.625 -15.814  1.00  0.00    +0.008 A 
ATOM      8  C   UNL     1      -9.564   4.053 -16.162  1.00  0.00    +0.046 A 
ATOM      9  C   UNL     1     -11.879   4.862 -14.752  1.00  0.00    +0.026 A 
ATOM     10  C   UNL     1     -10.079   3.302 -15.091  1.00  0.00    +0.052 A 
ATOM     11  C   UNL     1      -9.785   6.106 -17.664  1.00  0.00    +0.046 C 
BRANCH   8  12
ATOM     12  N   UNL     1      -8.424   3.656 -16.878  1.00  0.00    -0.324 N 
ATOM     13  H   UNL     1      -8.000   4.345 -17.481  1.00  0.00    +0.170 HD
BRANCH  12  14
ATOM     14  C   UNL     1      -7.660   2.494 -16.942  1.00  0.00    +0.227 A 
ATOM     15  N   UNL     1      -6.912   2.183 -18.007  1.00  0.00    -0.221 NA
ATOM     16  N   UNL     1      -7.732   1.720 -15.846  1.00  0.00    -0.213 NA
ATOM     17  C   UNL     1      -6.212   1.038 -17.954  1.00  0.00    +0.117 A 
ATOM     18  C   UNL     1      -7.010   0.576 -15.810  1.00  0.00    +0.077 A 
ATOM     19  C   UNL     1      -6.223   0.192 -16.875  1.00  0.00    +0.049 A 
BRANCH  18  20
ATOM     20  C   UNL     1      -7.134  -0.215 -14.574  1.00  0.00    +0.019 A 
ATOM     21  C   UNL     1      -6.153  -1.119 -14.137  1.00  0.00    +0.013 A 
ATOM     22  C   UNL     1      -8.257  -0.099 -13.749  1.00  0.00    +0.121 A 
ATOM     23  C   UNL     1      -6.329  -1.845 -12.958  1.00  0.00    +0.021 A 
ATOM     24  N   UNL     1      -8.460  -0.794 -12.600  1.00  0.00    -0.264 NA
ATOM     25  C   UNL     1      -7.489  -1.650 -12.232  1.00  0.00    +0.111 A 
ENDBRANCH  18  20
ENDBRANCH  12  14
ENDBRANCH   8  12
ENDBRANCH   1   5
BRANCH   2  26
ATOM     26  C   UNL     1     -13.056   1.737 -11.705  1.00  0.00    +0.040 A 
ATOM     27  C   UNL     1     -11.944   0.956 -11.377  1.00  0.00    +0.014 A 
ATOM     28  C   UNL     1     -14.258   1.557 -11.010  1.00  0.00    +0.014 A 
ATOM     29  C   UNL     1     -12.037  -0.016 -10.378  1.00  0.00    +0.006 A 
ATOM     30  C   UNL     1     -14.346   0.583 -10.010  1.00  0.00    +0.006 A 
ATOM     31  C   UNL     1     -13.238  -0.211  -9.677  1.00  0.00    -0.034 A 
BRANCH  31  32
ATOM     32  C   UNL     1     -13.339  -1.264  -8.591  1.00  0.00    +0.120 C 
BRANCH  32  33
ATOM     33  N   UNL     1     -12.672  -0.975  -7.320  1.00  0.00    -0.297 NA
ATOM     34  C   UNL     1     -11.288  -1.454  -7.202  1.00  0.00    +0.100 C 
ATOM     35  C   UNL     1     -12.837   0.403  -6.837  1.00  0.00    +0.100 C 
ATOM     36  C   UNL     1     -10.232  -0.330  -7.081  1.00  0.00    +0.099 C 
ATOM     37  C   UNL     1     -11.914   0.696  -5.633  1.00  0.00    +0.099 C 
ATOM     38  N   UNL     1     -10.480   0.635  -5.988  1.00  0.00    -0.304 NA
ATOM     39  C   UNL     1      -9.672   0.342  -4.809  1.00  0.00    +0.105 C 
ENDBRANCH  32  33
ENDBRANCH  31  32
ENDBRANCH   2  26
TORSDOF 7
ENDMDL
MODEL 10
REMARK VINA RESULT:    -9.334      3.244      7.584
REMARK INTER + INTRA:         -14.087
REMARK INTER:                 -13.294
REMARK INTRA:                  -0.793
REMARK UNBOUND:                -0.933
REMARK SMILES Cc1ccc(NC(=O)c2ccc(CN3CCN(C)CC3)cc2)cc1Nc1nccc(-c2cccnc2)n1
REMARK SMILES IDX 6 1 7 2 8 3 5 5 2 6 3 7 24 8 4 9 23 10 1 11 25 12 26 14
REMARK SMILES IDX 27 15 37 16 28 17 30 18 29 19 31 20 32 21 36 22 33 23 35 24
REMARK SMILES IDX 34 25 9 26 10 27 22 28 11 29 21 30 12 31 13 32 14 33 15 34
REMARK SMILES IDX 20 35 16 36 19 37 17 38 18 39
REMARK H PARENT 6 4 25 13
ROOT
ATOM      1  N   UNL     1      -7.396   2.081 -16.569  1.00  0.00    -0.322 N 
ATOM      2  C   UNL     1      -6.890   1.194 -17.503  1.00  0.00    +0.255 C 
ATOM      3  O   UNL     1      -6.928   1.307 -18.722  1.00  0.00    -0.269 OA
ATOM      4  H   UNL     1      -7.409   1.778 -15.604  1.00  0.00    +0.170 HD
ENDROOT
BRANCH   1   5
ATOM      5  C   UNL     1      -7.989   3.339 -16.812  1.00  0.00    +0.043 A 
ATOM      6  C   UNL     1      -9.301   5.806 -17.156  1.00  0.00    -0.027 A 
ATOM      7  C   UNL     1      -8.116   5.512 -17.850  1.00  0.00    +0.008 A 
ATOM      8  C   UNL     1      -9.853   4.853 -16.271  1.00  0.00    +0.046 A 
ATOM      9  C   UNL     1      -7.465   4.290 -17.680  1.00  0.00    +0.026 A 
ATOM     10  C   UNL     1      -9.173   3.633 -16.117  1.00  0.00    +0.052 A 
ATOM     11  C   UNL     1      -9.946   7.148 -17.386  1.00  0.00    +0.046 C 
BRANCH   8  12
ATOM     12  N   UNL     1     -11.032   5.151 -15.569  1.00  0.00    -0.324 N 
ATOM     13  H   UNL     1     -11.393   6.088 -15.658  1.00  0.00    +0.170 HD
BRANCH  12  14
ATOM     14  C   UNL     1     -11.903   4.425 -14.763  1.00  0.00    +0.227 A 
ATOM     15  N   UNL     1     -13.156   4.826 -14.514  1.00  0.00    -0.221 NA
ATOM     16  N   UNL     1     -11.386   3.289 -14.265  1.00  0.00    -0.213 NA
ATOM     17  C   UNL     1     -13.908   4.041 -13.726  1.00  0.00    +0.117 A 
ATOM     18  C   UNL     1     -12.166   2.508 -13.483  1.00  0.00    +0.077 A 
ATOM     19  C   UNL     1     -13.463   2.864 -13.181  1.00  0.00    +0.049 A 
BRANCH  18  20
ATOM     20  C   UNL     1     -11.531   1.277 -12.981  1.00  0.00    +0.019 A 
ATOM     21  C   UNL     1     -11.631   0.849 -11.648  1.00  0.00    +0.013 A 
ATOM     22  C   UNL     1     -10.787   0.449 -13.826  1.00  0.00    +0.121 A 
ATOM     23  C   UNL     1     -11.004  -0.326 -11.229  1.00  0.00    +0.021 A 
ATOM     24  N   UNL     1     -10.161  -0.697 -13.449  1.00  0.00    -0.264 NA
ATOM     25  C   UNL     1     -10.286  -1.056 -12.158  1.00  0.00    +0.111 A 
ENDBRANCH  18  20
ENDBRANCH  12  14
ENDBRANCH   8  12
ENDBRANCH   1   5
BRANCH   2  26
ATOM     26  C   UNL     1      -6.276  -0.036 -16.926  1.00  0.00    +0.040 A 
ATOM     27  C   UNL     1      -5.034  -0.454 -17.415  1.00  0.00    +0.014 A 
ATOM     28  C   UNL     1      -6.896  -0.762 -15.902  1.00  0.00    +0.014 A 
ATOM     29  C   UNL     1      -4.426  -1.602 -16.902  1.00  0.00    +0.006 A 
ATOM     30  C   UNL     1      -6.283  -1.911 -15.391  1.00  0.00    +0.006 A 
ATOM     31  C   UNL     1      -5.040  -2.342 -15.879  1.00  0.00    -0.034 A 
BRANCH  31  32
ATOM     32  C   UNL     1      -4.379  -3.587 -15.319  1.00  0.00    +0.120 C 
BRANCH  32  33
ATOM     33  N   UNL     1      -4.833  -4.048 -14.006  1.00  0.00    -0.297 NA
ATOM     34  C   UNL     1      -5.574  -5.317 -13.996  1.00  0.00    +0.100 C 
ATOM     35  C   UNL     1      -3.820  -3.976 -12.944  1.00  0.00    +0.100 C 
ATOM     36  C   UNL     1      -4.858  -6.468 -13.253  1.00  0.00    +0.099 C 
ATOM     37  C   UNL     1      -4.290  -4.700 -11.662  1.00  0.00    +0.099 C 
ATOM     38  N   UNL     1      -4.464  -6.154 -11.862  1.00  0.00    -0.304 NA
ATOM     39  C   UNL     1      -5.411  -6.695 -10.892  1.00  0.00    +0.105 C 
ENDBRANCH  32  33
ENDBRANCH  31  32
ENDBRANCH   2  26
TORSDOF 7
ENDMDL
