MODEL 1
REMARK VINA RESULT:    -8.694      0.000      0.000
REMARK INTER + INTRA:         -12.238
REMARK INTER:                 -11.235
REMARK INTRA:                  -1.003
REMARK UNBOUND:                -1.003
REMARK SMILES CNC(=O)c1ccccc1Sc1ccc2c(/C=C/c3ccccn3)n[nH]c2c1
REMARK SMILES IDX 11 1 10 2 5 3 6 4 7 5 9 6 8 7 3 8 2 9 4 10 1 11 12 13 13 14
REMARK SMILES IDX 28 15 14 16 27 17 15 18 26 19 16 20 25 21 17 23 18 24 19 25
REMARK SMILES IDX 20 26 24 27 21 28 23 29 22 30
REMARK H PARENT 2 12 26 22
ROOT
ATOM      1  S   UNL     1     -12.801  -1.090  -9.545  1.00  0.00    -0.089 SA
ENDROOT
BRANCH   1   2
ATOM      2  C   UNL     1     -12.136  -0.263  -8.101  1.00  0.00    +0.025 A 
ATOM      3  C   UNL     1     -12.917   0.408  -7.143  1.00  0.00    +0.053 A 
ATOM      4  C   UNL     1     -12.296   1.088  -6.082  1.00  0.00    +0.015 A 
ATOM      5  C   UNL     1     -10.909   1.075  -5.947  1.00  0.00    +0.001 A 
ATOM      6  C   UNL     1     -10.739  -0.271  -7.946  1.00  0.00    +0.016 A 
ATOM      7  C   UNL     1     -10.132   0.390  -6.876  1.00  0.00    +0.001 A 
BRANCH   3   8
ATOM      8  C   UNL     1     -14.400   0.485  -7.186  1.00  0.00    +0.252 C 
ATOM      9  N   UNL     1     -15.083  -0.501  -6.510  1.00  0.00    -0.355 N 
ATOM     10  O   UNL     1     -14.943   1.410  -7.781  1.00  0.00    -0.269 OA
ATOM     11  C   UNL     1     -16.519  -0.589  -6.570  1.00  0.00    +0.143 C 
ATOM     12  H   UNL     1     -14.565  -1.308  -6.182  1.00  0.00    +0.163 HD
ENDBRANCH   3   8
ENDBRANCH   1   2
BRANCH   1  13
ATOM     13  C   UNL     1     -12.570   0.187 -10.777  1.00  0.00    +0.014 A 
ATOM     14  C   UNL     1     -11.350   0.265 -11.456  1.00  0.00    +0.016 A 
ATOM     15  C   UNL     1     -13.606   1.085 -11.068  1.00  0.00    +0.043 A 
ATOM     16  C   UNL     1     -11.126   1.250 -12.429  1.00  0.00    +0.014 A 
ATOM     17  C   UNL     1     -13.355   2.064 -12.037  1.00  0.00    +0.067 A 
ATOM     18  C   UNL     1     -12.152   2.171 -12.722  1.00  0.00    +0.027 A 
ATOM     19  N   UNL     1     -14.137   3.075 -12.523  1.00  0.00    -0.277 N 
ATOM     20  C   UNL     1     -12.327   3.283 -13.603  1.00  0.00    +0.093 A 
ATOM     21  N   UNL     1     -13.549   3.823 -13.469  1.00  0.00    -0.175 NA
ATOM     22  H   UNL     1     -15.085   3.307 -12.248  1.00  0.00    +0.190 HD
BRANCH  20  23
ATOM     23  C   UNL     1     -11.332   3.765 -14.516  1.00  0.00    +0.033 C 
ATOM     24  C   UNL     1     -11.457   4.871 -15.271  1.00  0.00    +0.030 C 
BRANCH  24  25
ATOM     25  C   UNL     1     -10.429   5.352 -16.201  1.00  0.00    +0.063 A 
ATOM     26  C   UNL     1     -10.397   6.695 -16.568  1.00  0.00    +0.028 A 
ATOM     27  N   UNL     1      -9.535   4.450 -16.672  1.00  0.00    -0.257 NA
ATOM     28  C   UNL     1      -9.412   7.129 -17.452  1.00  0.00    +0.004 A 
ATOM     29  C   UNL     1      -8.591   4.899 -17.528  1.00  0.00    +0.111 A 
ATOM     30  C   UNL     1      -8.488   6.215 -17.944  1.00  0.00    +0.020 A 
ENDBRANCH  24  25
ENDBRANCH  20  23
ENDBRANCH   1  13
TORSDOF 5
ENDMDL
MODEL 2
REMARK VINA RESULT:    -8.642      2.198      3.223
REMARK INTER + INTRA:         -12.172
REMARK INTER:                 -11.193
REMARK INTRA:                  -0.979
REMARK UNBOUND:                -1.003
REMARK SMILES CNC(=O)c1ccccc1Sc1ccc2c(/C=C/c3ccccn3)n[nH]c2c1
REMARK SMILES IDX 11 1 10 2 5 3 6 4 7 5 9 6 8 7 3 8 2 9 4 10 1 11 12 13 13 14
REMARK SMILES IDX 28 15 14 16 27 17 15 18 26 19 16 20 25 21 17 23 18 24 19 25
REMARK SMILES IDX 20 26 24 27 21 28 23 29 22 30
REMARK H PARENT 2 12 26 22
ROOT
ATOM      1  S   UNL     1     -13.755  -0.274  -8.899  1.00  0.00    -0.089 SA
ENDROOT
BRANCH   1   2
ATOM      2  C   UNL     1     -12.943  -1.838  -9.230  1.00  0.00    +0.025 A 
ATOM      3  C   UNL     1     -11.762  -2.265  -8.597  1.00  0.00    +0.053 A 
ATOM      4  C   UNL     1     -11.162  -3.477  -8.975  1.00  0.00    +0.015 A 
ATOM      5  C   UNL     1     -11.745  -4.283  -9.952  1.00  0.00    +0.001 A 
ATOM      6  C   UNL     1     -13.521  -2.665 -10.207  1.00  0.00    +0.016 A 
ATOM      7  C   UNL     1     -12.928  -3.878 -10.563  1.00  0.00    +0.001 A 
BRANCH   3   8
ATOM      8  C   UNL     1     -11.057  -1.490  -7.543  1.00  0.00    +0.252 C 
ATOM      9  N   UNL     1     -10.017  -0.693  -7.965  1.00  0.00    -0.355 N 
ATOM     10  O   UNL     1     -11.433  -1.566  -6.379  1.00  0.00    -0.269 OA
ATOM     11  C   UNL     1      -9.194   0.021  -7.023  1.00  0.00    +0.143 C 
ATOM     12  H   UNL     1      -9.673  -0.809  -8.911  1.00  0.00    +0.163 HD
ENDBRANCH   3   8
ENDBRANCH   1   2
BRANCH   1  13
ATOM     13  C   UNL     1     -13.204   0.674 -10.313  1.00  0.00    +0.014 A 
ATOM     14  C   UNL     1     -11.892   0.515 -10.771  1.00  0.00    +0.016 A 
ATOM     15  C   UNL     1     -14.084   1.550 -10.964  1.00  0.00    +0.043 A 
ATOM     16  C   UNL     1     -11.419   1.238 -11.875  1.00  0.00    +0.014 A 
ATOM     17  C   UNL     1     -13.586   2.266 -12.059  1.00  0.00    +0.067 A 
ATOM     18  C   UNL     1     -12.286   2.136 -12.531  1.00  0.00    +0.027 A 
ATOM     19  N   UNL     1     -14.174   3.191 -12.877  1.00  0.00    -0.277 N 
ATOM     20  C   UNL     1     -12.206   3.029 -13.643  1.00  0.00    +0.093 A 
ATOM     21  N   UNL     1     -13.371   3.665 -13.842  1.00  0.00    -0.175 NA
ATOM     22  H   UNL     1     -15.124   3.542 -12.826  1.00  0.00    +0.190 HD
BRANCH  20  23
ATOM     23  C   UNL     1     -11.037   3.225 -14.449  1.00  0.00    +0.033 C 
ATOM     24  C   UNL     1     -10.887   4.207 -15.356  1.00  0.00    +0.030 C 
BRANCH  24  25
ATOM     25  C   UNL     1      -9.683   4.396 -16.173  1.00  0.00    +0.063 A 
ATOM     26  C   UNL     1      -9.502   5.581 -16.881  1.00  0.00    +0.028 A 
ATOM     27  N   UNL     1      -8.780   3.387 -16.204  1.00  0.00    -0.257 NA
ATOM     28  C   UNL     1      -8.352   5.738 -17.651  1.00  0.00    +0.004 A 
ATOM     29  C   UNL     1      -7.674   3.566 -16.958  1.00  0.00    +0.111 A 
ATOM     30  C   UNL     1      -7.416   4.712 -17.693  1.00  0.00    +0.020 A 
ENDBRANCH  24  25
ENDBRANCH  20  23
ENDBRANCH   1  13
TORSDOF 5
ENDMDL
MODEL 3
REMARK VINA RESULT:    -8.567      2.129      2.648
REMARK INTER + INTRA:         -12.074
REMARK INTER:                 -11.170
REMARK INTRA:                  -0.905
REMARK UNBOUND:                -1.003
REMARK SMILES CNC(=O)c1ccccc1Sc1ccc2c(/C=C/c3ccccn3)n[nH]c2c1
REMARK SMILES IDX 11 1 10 2 5 3 6 4 7 5 9 6 8 7 3 8 2 9 4 10 1 11 12 13 13 14
REMARK SMILES IDX 28 15 14 16 27 17 15 18 26 19 16 20 25 21 17 23 18 24 19 25
REMARK SMILES IDX 20 26 24 27 21 28 23 29 22 30
REMARK H PARENT 2 12 26 22
ROOT
ATOM      1  S   UNL     1     -13.312  -0.476  -9.201  1.00  0.00    -0.089 SA
ENDROOT
BRANCH   1   2
ATOM      2  C   UNL     1     -11.689  -0.685  -8.467  1.00  0.00    +0.025 A 
ATOM      3  C   UNL     1     -10.859  -1.798  -8.687  1.00  0.00    +0.053 A 
ATOM      4  C   UNL     1      -9.633  -1.905  -8.010  1.00  0.00    +0.015 A 
ATOM      5  C   UNL     1      -9.212  -0.897  -7.144  1.00  0.00    +0.001 A 
ATOM      6  C   UNL     1     -11.246   0.324  -7.596  1.00  0.00    +0.016 A 
ATOM      7  C   UNL     1     -10.017   0.220  -6.942  1.00  0.00    +0.001 A 
BRANCH   3   8
ATOM      8  C   UNL     1     -11.205  -2.928  -9.589  1.00  0.00    +0.252 C 
ATOM      9  N   UNL     1     -12.053  -3.882  -9.074  1.00  0.00    -0.355 N 
ATOM     10  O   UNL     1     -10.759  -2.952 -10.731  1.00  0.00    -0.269 OA
ATOM     11  C   UNL     1     -12.374  -5.074  -9.817  1.00  0.00    +0.143 C 
ATOM     12  H   UNL     1     -12.246  -3.869  -8.079  1.00  0.00    +0.163 HD
ENDBRANCH   3   8
ENDBRANCH   1   2
BRANCH   1  13
ATOM     13  C   UNL     1     -12.901   0.590 -10.578  1.00  0.00    +0.014 A 
ATOM     14  C   UNL     1     -11.634   0.492 -11.162  1.00  0.00    +0.016 A 
ATOM     15  C   UNL     1     -13.846   1.498 -11.077  1.00  0.00    +0.043 A 
ATOM     16  C   UNL     1     -11.271   1.308 -12.243  1.00  0.00    +0.014 A 
ATOM     17  C   UNL     1     -13.458   2.306 -12.152  1.00  0.00    +0.067 A 
ATOM     18  C   UNL     1     -12.204   2.237 -12.746  1.00  0.00    +0.027 A 
ATOM     19  N   UNL     1     -14.128   3.280 -12.838  1.00  0.00    -0.277 N 
ATOM     20  C   UNL     1     -12.236   3.216 -13.787  1.00  0.00    +0.093 A 
ATOM     21  N   UNL     1     -13.421   3.843 -13.830  1.00  0.00    -0.175 NA
ATOM     22  H   UNL     1     -15.073   3.608 -12.675  1.00  0.00    +0.190 HD
BRANCH  20  23
ATOM     23  C   UNL     1     -11.146   3.496 -14.675  1.00  0.00    +0.033 C 
ATOM     24  C   UNL     1     -11.047   4.596 -15.444  1.00  0.00    +0.030 C 
BRANCH  24  25
ATOM     25  C   UNL     1      -9.925   4.870 -16.348  1.00  0.00    +0.063 A 
ATOM     26  C   UNL     1      -9.819   6.111 -16.969  1.00  0.00    +0.028 A 
ATOM     27  N   UNL     1      -9.020   3.880 -16.544  1.00  0.00    -0.257 NA
ATOM     28  C   UNL     1      -8.745   6.348 -17.824  1.00  0.00    +0.004 A 
ATOM     29  C   UNL     1      -7.989   4.138 -17.378  1.00  0.00    +0.111 A 
ATOM     30  C   UNL     1      -7.809   5.344 -18.035  1.00  0.00    +0.020 A 
ENDBRANCH  24  25
ENDBRANCH  20  23
ENDBRANCH   1  13
TORSDOF 5
ENDMDL
MODEL 4
REMARK VINA RESULT:    -8.538      2.259      2.882
REMARK INTER + INTRA:         -12.036
REMARK INTER:                 -11.681
REMARK INTRA:                  -0.355
REMARK UNBOUND:                -1.003
REMARK SMILES CNC(=O)c1ccccc1Sc1ccc2c(/C=C/c3ccccn3)n[nH]c2c1
REMARK SMILES IDX 11 1 10 2 5 3 6 4 7 5 9 6 8 7 3 8 2 9 4 10 1 11 12 13 13 14
REMARK SMILES IDX 28 15 14 16 27 17 15 18 26 19 16 20 25 21 17 23 18 24 19 25
REMARK SMILES IDX 20 26 24 27 21 28 23 29 22 30
REMARK H PARENT 2 12 26 22
ROOT
ATOM      1  S   UNL     1     -13.057  -0.311  -8.967  1.00  0.00    -0.089 SA
ENDROOT
BRANCH   1   2
ATOM      2  C   UNL     1     -13.021  -1.943  -9.709  1.00  0.00    +0.025 A 
ATOM      3  C   UNL     1     -13.860  -3.005  -9.326  1.00  0.00    +0.053 A 
ATOM      4  C   UNL     1     -13.708  -4.269  -9.918  1.00  0.00    +0.015 A 
ATOM      5  C   UNL     1     -12.753  -4.475 -10.913  1.00  0.00    +0.001 A 
ATOM      6  C   UNL     1     -12.068  -2.167 -10.717  1.00  0.00    +0.016 A 
ATOM      7  C   UNL     1     -11.938  -3.422 -11.315  1.00  0.00    +0.001 A 
BRANCH   3   8
ATOM      8  C   UNL     1     -14.912  -2.897  -8.281  1.00  0.00    +0.252 C 
ATOM      9  N   UNL     1     -16.106  -2.335  -8.672  1.00  0.00    -0.355 N 
ATOM     10  O   UNL     1     -14.693  -3.326  -7.153  1.00  0.00    -0.269 OA
ATOM     11  C   UNL     1     -17.159  -2.084  -7.721  1.00  0.00    +0.143 C 
ATOM     12  H   UNL     1     -16.148  -1.867  -9.570  1.00  0.00    +0.163 HD
ENDBRANCH   3   8
ENDBRANCH   1   2
BRANCH   1  13
ATOM     13  C   UNL     1     -12.748   0.700 -10.411  1.00  0.00    +0.014 A 
ATOM     14  C   UNL     1     -11.466   0.718 -10.969  1.00  0.00    +0.016 A 
ATOM     15  C   UNL     1     -13.785   1.448 -10.985  1.00  0.00    +0.043 A 
ATOM     16  C   UNL     1     -11.181   1.496 -12.101  1.00  0.00    +0.014 A 
ATOM     17  C   UNL     1     -13.474   2.222 -12.110  1.00  0.00    +0.067 A 
ATOM     18  C   UNL     1     -12.209   2.267 -12.680  1.00  0.00    +0.027 A 
ATOM     19  N   UNL     1     -14.242   3.058 -12.872  1.00  0.00    -0.277 N 
ATOM     20  C   UNL     1     -12.335   3.161 -13.788  1.00  0.00    +0.093 A 
ATOM     21  N   UNL     1     -13.587   3.634 -13.892  1.00  0.00    -0.175 NA
ATOM     22  H   UNL     1     -15.224   3.278 -12.746  1.00  0.00    +0.190 HD
BRANCH  20  23
ATOM     23  C   UNL     1     -11.269   3.511 -14.680  1.00  0.00    +0.033 C 
ATOM     24  C   UNL     1     -11.212   4.646 -15.399  1.00  0.00    +0.030 C 
BRANCH  24  25
ATOM     25  C   UNL     1     -10.113   4.991 -16.307  1.00  0.00    +0.063 A 
ATOM     26  C   UNL     1      -9.995   6.290 -16.794  1.00  0.00    +0.028 A 
ATOM     27  N   UNL     1      -9.241   4.009 -16.640  1.00  0.00    -0.257 NA
ATOM     28  C   UNL     1      -8.943   6.595 -17.656  1.00  0.00    +0.004 A 
ATOM     29  C   UNL     1      -8.231   4.333 -17.477  1.00  0.00    +0.111 A 
ATOM     30  C   UNL     1      -8.041   5.598 -18.006  1.00  0.00    +0.020 A 
ENDBRANCH  24  25
ENDBRANCH  20  23
ENDBRANCH   1  13
TORSDOF 5
ENDMDL
MODEL 5
REMARK VINA RESULT:    -8.344      7.314     11.042
REMARK INTER + INTRA:         -11.786
REMARK INTER:                 -11.249
REMARK INTRA:                  -0.536
REMARK UNBOUND:                -1.003
REMARK SMILES CNC(=O)c1ccccc1Sc1ccc2c(/C=C/c3ccccn3)n[nH]c2c1
REMARK SMILES IDX 11 1 10 2 5 3 6 4 7 5 9 6 8 7 3 8 2 9 4 10 1 11 12 13 13 14
REMARK SMILES IDX 28 15 14 16 27 17 15 18 26 19 16 20 25 21 17 23 18 24 19 25
REMARK SMILES IDX 20 26 24 27 21 28 23 29 22 30
REMARK H PARENT 2 12 26 22
ROOT
ATOM      1  S   UNL     1      -7.463   4.683 -17.870  1.00  0.00    -0.089 SA
ENDROOT
BRANCH   1   2
ATOM      2  C   UNL     1      -9.013   4.805 -16.978  1.00  0.00    +0.025 A 
ATOM      3  C   UNL     1      -9.975   5.808 -17.195  1.00  0.00    +0.053 A 
ATOM      4  C   UNL     1     -11.128   5.860 -16.395  1.00  0.00    +0.015 A 
ATOM      5  C   UNL     1     -11.349   4.903 -15.406  1.00  0.00    +0.001 A 
ATOM      6  C   UNL     1      -9.255   3.844 -15.982  1.00  0.00    +0.016 A 
ATOM      7  C   UNL     1     -10.414   3.892 -15.204  1.00  0.00    +0.001 A 
BRANCH   3   8
ATOM      8  C   UNL     1      -9.845   6.876 -18.220  1.00  0.00    +0.252 C 
ATOM      9  N   UNL     1     -10.310   6.572 -19.480  1.00  0.00    -0.355 N 
ATOM     10  O   UNL     1      -9.369   7.962 -17.909  1.00  0.00    -0.269 OA
ATOM     11  C   UNL     1     -10.141   7.489 -20.579  1.00  0.00    +0.143 C 
ATOM     12  H   UNL     1     -10.540   5.608 -19.690  1.00  0.00    +0.163 HD
ENDBRANCH   3   8
ENDBRANCH   1   2
BRANCH   1  13
ATOM     13  C   UNL     1      -6.866   3.112 -17.255  1.00  0.00    +0.014 A 
ATOM     14  C   UNL     1      -7.040   1.965 -18.035  1.00  0.00    +0.016 A 
ATOM     15  C   UNL     1      -6.215   3.039 -16.016  1.00  0.00    +0.043 A 
ATOM     16  C   UNL     1      -6.586   0.714 -17.591  1.00  0.00    +0.014 A 
ATOM     17  C   UNL     1      -5.779   1.779 -15.591  1.00  0.00    +0.067 A 
ATOM     18  C   UNL     1      -5.945   0.621 -16.339  1.00  0.00    +0.027 A 
ATOM     19  N   UNL     1      -5.141   1.381 -14.449  1.00  0.00    -0.277 N 
ATOM     20  C   UNL     1      -5.361  -0.416 -15.549  1.00  0.00    +0.093 A 
ATOM     21  N   UNL     1      -4.872   0.067 -14.396  1.00  0.00    -0.175 NA
ATOM     22  H   UNL     1      -4.862   1.961 -13.666  1.00  0.00    +0.190 HD
BRANCH  20  23
ATOM     23  C   UNL     1      -5.300  -1.797 -15.930  1.00  0.00    +0.033 C 
ATOM     24  C   UNL     1      -5.347  -2.832 -15.073  1.00  0.00    +0.030 C 
BRANCH  24  25
ATOM     25  C   UNL     1      -5.284  -4.241 -15.479  1.00  0.00    +0.063 A 
ATOM     26  C   UNL     1      -4.112  -4.755 -16.026  1.00  0.00    +0.028 A 
ATOM     27  N   UNL     1      -6.394  -4.996 -15.298  1.00  0.00    -0.257 NA
ATOM     28  C   UNL     1      -4.076  -6.095 -16.405  1.00  0.00    +0.004 A 
ATOM     29  C   UNL     1      -6.330  -6.292 -15.675  1.00  0.00    +0.111 A 
ATOM     30  C   UNL     1      -5.206  -6.883 -16.227  1.00  0.00    +0.020 A 
ENDBRANCH  24  25
ENDBRANCH  20  23
ENDBRANCH   1  13
TORSDOF 5
ENDMDL
MODEL 6
REMARK VINA RESULT:    -8.064      2.262      3.126
REMARK INTER + INTRA:         -11.424
REMARK INTER:                 -10.529
REMARK INTRA:                  -0.895
REMARK UNBOUND:                -1.003
REMARK SMILES CNC(=O)c1ccccc1Sc1ccc2c(/C=C/c3ccccn3)n[nH]c2c1
REMARK SMILES IDX 11 1 10 2 5 3 6 4 7 5 9 6 8 7 3 8 2 9 4 10 1 11 12 13 13 14
REMARK SMILES IDX 28 15 14 16 27 17 15 18 26 19 16 20 25 21 17 23 18 24 19 25
REMARK SMILES IDX 20 26 24 27 21 28 23 29 22 30
REMARK H PARENT 2 12 26 22
ROOT
ATOM      1  S   UNL     1     -14.705   0.093  -9.226  1.00  0.00    -0.089 SA
ENDROOT
BRANCH   1   2
ATOM      2  C   UNL     1     -13.914  -1.483  -8.903  1.00  0.00    +0.025 A 
ATOM      3  C   UNL     1     -13.048  -1.728  -7.822  1.00  0.00    +0.053 A 
ATOM      4  C   UNL     1     -12.420  -2.977  -7.694  1.00  0.00    +0.015 A 
ATOM      5  C   UNL     1     -12.673  -3.995  -8.612  1.00  0.00    +0.001 A 
ATOM      6  C   UNL     1     -14.162  -2.522  -9.815  1.00  0.00    +0.016 A 
ATOM      7  C   UNL     1     -13.549  -3.768  -9.669  1.00  0.00    +0.001 A 
BRANCH   3   8
ATOM      8  C   UNL     1     -12.709  -0.719  -6.785  1.00  0.00    +0.252 C 
ATOM      9  N   UNL     1     -11.654   0.118  -7.069  1.00  0.00    -0.355 N 
ATOM     10  O   UNL     1     -13.378  -0.654  -5.759  1.00  0.00    -0.269 OA
ATOM     11  C   UNL     1     -11.168   1.063  -6.097  1.00  0.00    +0.143 C 
ATOM     12  H   UNL     1     -11.061  -0.105  -7.860  1.00  0.00    +0.163 HD
ENDBRANCH   3   8
ENDBRANCH   1   2
BRANCH   1  13
ATOM     13  C   UNL     1     -13.597   0.757 -10.464  1.00  0.00    +0.014 A 
ATOM     14  C   UNL     1     -14.005   1.857 -11.224  1.00  0.00    +0.016 A 
ATOM     15  C   UNL     1     -12.328   0.191 -10.653  1.00  0.00    +0.043 A 
ATOM     16  C   UNL     1     -13.167   2.409 -12.204  1.00  0.00    +0.014 A 
ATOM     17  C   UNL     1     -11.514   0.755 -11.642  1.00  0.00    +0.067 A 
ATOM     18  C   UNL     1     -11.895   1.841 -12.419  1.00  0.00    +0.027 A 
ATOM     19  N   UNL     1     -10.258   0.428 -12.073  1.00  0.00    -0.277 N 
ATOM     20  C   UNL     1     -10.782   2.086 -13.282  1.00  0.00    +0.093 A 
ATOM     21  N   UNL     1      -9.789   1.213 -13.055  1.00  0.00    -0.175 NA
ATOM     22  H   UNL     1      -9.667  -0.324 -11.735  1.00  0.00    +0.190 HD
BRANCH  20  23
ATOM     23  C   UNL     1     -10.727   3.129 -14.264  1.00  0.00    +0.033 C 
ATOM     24  C   UNL     1      -9.709   3.318 -15.124  1.00  0.00    +0.030 C 
BRANCH  24  25
ATOM     25  C   UNL     1      -9.667   4.390 -16.126  1.00  0.00    +0.063 A 
ATOM     26  C   UNL     1     -10.692   5.330 -16.182  1.00  0.00    +0.028 A 
ATOM     27  N   UNL     1      -8.609   4.418 -16.971  1.00  0.00    -0.257 NA
ATOM     28  C   UNL     1     -10.631   6.338 -17.142  1.00  0.00    +0.004 A 
ATOM     29  C   UNL     1      -8.575   5.406 -17.891  1.00  0.00    +0.111 A 
ATOM     30  C   UNL     1      -9.552   6.380 -18.015  1.00  0.00    +0.020 A 
ENDBRANCH  24  25
ENDBRANCH  20  23
ENDBRANCH   1  13
TORSDOF 5
ENDMDL
MODEL 7
REMARK VINA RESULT:    -8.055      3.679     10.226
REMARK INTER + INTRA:         -11.413
REMARK INTER:                 -12.099
REMARK INTRA:                   0.686
REMARK UNBOUND:                -1.003
REMARK SMILES CNC(=O)c1ccccc1Sc1ccc2c(/C=C/c3ccccn3)n[nH]c2c1
REMARK SMILES IDX 11 1 10 2 5 3 6 4 7 5 9 6 8 7 3 8 2 9 4 10 1 11 12 13 13 14
REMARK SMILES IDX 28 15 14 16 27 17 15 18 26 19 16 20 25 21 17 23 18 24 19 25
REMARK SMILES IDX 20 26 24 27 21 28 23 29 22 30
REMARK H PARENT 2 12 26 22
ROOT
ATOM      1  S   UNL     1     -11.638   5.534 -16.000  1.00  0.00    -0.089 SA
ENDROOT
BRANCH   1   2
ATOM      2  C   UNL     1     -10.061   4.939 -16.610  1.00  0.00    +0.025 A 
ATOM      3  C   UNL     1      -9.112   5.742 -17.268  1.00  0.00    +0.053 A 
ATOM      4  C   UNL     1      -7.935   5.168 -17.774  1.00  0.00    +0.015 A 
ATOM      5  C   UNL     1      -7.678   3.809 -17.599  1.00  0.00    +0.001 A 
ATOM      6  C   UNL     1      -9.783   3.572 -16.438  1.00  0.00    +0.016 A 
ATOM      7  C   UNL     1      -8.600   3.013 -16.926  1.00  0.00    +0.001 A 
BRANCH   3   8
ATOM      8  C   UNL     1      -9.280   7.199 -17.507  1.00  0.00    +0.252 C 
ATOM      9  N   UNL     1      -9.247   7.610 -18.821  1.00  0.00    -0.355 N 
ATOM     10  O   UNL     1      -9.465   7.953 -16.558  1.00  0.00    -0.269 OA
ATOM     11  C   UNL     1      -9.293   9.008 -19.166  1.00  0.00    +0.143 C 
ATOM     12  H   UNL     1      -8.934   6.952 -19.524  1.00  0.00    +0.163 HD
ENDBRANCH   3   8
ENDBRANCH   1   2
BRANCH   1  13
ATOM     13  C   UNL     1     -11.947   4.340 -14.704  1.00  0.00    +0.014 A 
ATOM     14  C   UNL     1     -13.240   4.217 -14.184  1.00  0.00    +0.016 A 
ATOM     15  C   UNL     1     -10.909   3.525 -14.230  1.00  0.00    +0.043 A 
ATOM     16  C   UNL     1     -13.526   3.294 -13.169  1.00  0.00    +0.014 A 
ATOM     17  C   UNL     1     -11.218   2.617 -13.211  1.00  0.00    +0.067 A 
ATOM     18  C   UNL     1     -12.490   2.479 -12.670  1.00  0.00    +0.027 A 
ATOM     19  N   UNL     1     -10.441   1.715 -12.538  1.00  0.00    -0.277 N 
ATOM     20  C   UNL     1     -12.360   1.457 -11.680  1.00  0.00    +0.093 A 
ATOM     21  N   UNL     1     -11.100   0.999 -11.614  1.00  0.00    -0.175 NA
ATOM     22  H   UNL     1      -9.451   1.542 -12.664  1.00  0.00    +0.190 HD
BRANCH  20  23
ATOM     23  C   UNL     1     -13.433   0.975 -10.859  1.00  0.00    +0.033 C 
ATOM     24  C   UNL     1     -13.285   0.130  -9.823  1.00  0.00    +0.030 C 
BRANCH  24  25
ATOM     25  C   UNL     1     -14.393  -0.354  -8.992  1.00  0.00    +0.063 A 
ATOM     26  C   UNL     1     -15.062   0.526  -8.145  1.00  0.00    +0.028 A 
ATOM     27  N   UNL     1     -14.724  -1.664  -9.086  1.00  0.00    -0.257 NA
ATOM     28  C   UNL     1     -16.111   0.044  -7.364  1.00  0.00    +0.004 A 
ATOM     29  C   UNL     1     -15.745  -2.104  -8.317  1.00  0.00    +0.111 A 
ATOM     30  C   UNL     1     -16.462  -1.297  -7.450  1.00  0.00    +0.020 A 
ENDBRANCH  24  25
ENDBRANCH  20  23
ENDBRANCH   1  13
TORSDOF 5
ENDMDL
MODEL 8
REMARK VINA RESULT:    -8.019      6.494      8.108
REMARK INTER + INTRA:         -11.366
REMARK INTER:                 -10.417
REMARK INTRA:                  -0.949
REMARK UNBOUND:                -1.003
REMARK SMILES CNC(=O)c1ccccc1Sc1ccc2c(/C=C/c3ccccn3)n[nH]c2c1
REMARK SMILES IDX 11 1 10 2 5 3 6 4 7 5 9 6 8 7 3 8 2 9 4 10 1 11 12 13 13 14
REMARK SMILES IDX 28 15 14 16 27 17 15 18 26 19 16 20 25 21 17 23 18 24 19 25
REMARK SMILES IDX 20 26 24 27 21 28 23 29 22 30
REMARK H PARENT 2 12 26 22
ROOT
ATOM      1  S   UNL     1      -6.800  -1.398 -15.748  1.00  0.00    -0.089 SA
ENDROOT
BRANCH   1   2
ATOM      2  C   UNL     1      -5.935  -1.138 -14.199  1.00  0.00    +0.025 A 
ATOM      3  C   UNL     1      -4.558  -0.868 -14.098  1.00  0.00    +0.053 A 
ATOM      4  C   UNL     1      -3.957  -0.750 -12.834  1.00  0.00    +0.015 A 
ATOM      5  C   UNL     1      -4.720  -0.863 -11.673  1.00  0.00    +0.001 A 
ATOM      6  C   UNL     1      -6.690  -1.243 -13.019  1.00  0.00    +0.016 A 
ATOM      7  C   UNL     1      -6.087  -1.104 -11.767  1.00  0.00    +0.001 A 
BRANCH   3   8
ATOM      8  C   UNL     1      -3.651  -0.726 -15.267  1.00  0.00    +0.252 C 
ATOM      9  N   UNL     1      -3.567   0.530 -15.825  1.00  0.00    -0.355 N 
ATOM     10  O   UNL     1      -3.011  -1.694 -15.660  1.00  0.00    -0.269 OA
ATOM     11  C   UNL     1      -2.803   0.764 -17.023  1.00  0.00    +0.143 C 
ATOM     12  H   UNL     1      -4.243   1.230 -15.542  1.00  0.00    +0.163 HD
ENDBRANCH   3   8
ENDBRANCH   1   2
BRANCH   1  13
ATOM     13  C   UNL     1      -7.565   0.207 -15.956  1.00  0.00    +0.014 A 
ATOM     14  C   UNL     1      -7.057   1.083 -16.920  1.00  0.00    +0.016 A 
ATOM     15  C   UNL     1      -8.671   0.570 -15.175  1.00  0.00    +0.043 A 
ATOM     16  C   UNL     1      -7.626   2.350 -17.116  1.00  0.00    +0.014 A 
ATOM     17  C   UNL     1      -9.216   1.842 -15.385  1.00  0.00    +0.067 A 
ATOM     18  C   UNL     1      -8.728   2.737 -16.328  1.00  0.00    +0.027 A 
ATOM     19  N   UNL     1     -10.263   2.487 -14.786  1.00  0.00    -0.277 N 
ATOM     20  C   UNL     1      -9.566   3.889 -16.211  1.00  0.00    +0.093 A 
ATOM     21  N   UNL     1     -10.500   3.718 -15.263  1.00  0.00    -0.175 NA
ATOM     22  H   UNL     1     -10.855   2.137 -14.041  1.00  0.00    +0.190 HD
BRANCH  20  23
ATOM     23  C   UNL     1      -9.432   5.078 -17.000  1.00  0.00    +0.033 C 
ATOM     24  C   UNL     1     -10.038   5.285 -18.184  1.00  0.00    +0.030 C 
BRANCH  24  25
ATOM     25  C   UNL     1      -9.892   6.508 -18.980  1.00  0.00    +0.063 A 
ATOM     26  C   UNL     1      -9.517   7.699 -18.364  1.00  0.00    +0.028 A 
ATOM     27  N   UNL     1     -10.134   6.424 -20.311  1.00  0.00    -0.257 NA
ATOM     28  C   UNL     1      -9.385   8.848 -19.141  1.00  0.00    +0.004 A 
ATOM     29  C   UNL     1      -9.999   7.554 -21.039  1.00  0.00    +0.111 A 
ATOM     30  C   UNL     1      -9.630   8.778 -20.506  1.00  0.00    +0.020 A 
ENDBRANCH  24  25
ENDBRANCH  20  23
ENDBRANCH   1  13
TORSDOF 5
ENDMDL
MODEL 9
REMARK VINA RESULT:    -8.001      1.480      2.548
REMARK INTER + INTRA:         -11.343
REMARK INTER:                 -10.415
REMARK INTRA:                  -0.928
REMARK UNBOUND:                -1.003
REMARK SMILES CNC(=O)c1ccccc1Sc1ccc2c(/C=C/c3ccccn3)n[nH]c2c1
REMARK SMILES IDX 11 1 10 2 5 3 6 4 7 5 9 6 8 7 3 8 2 9 4 10 1 11 12 13 13 14
REMARK SMILES IDX 28 15 14 16 27 17 15 18 26 19 16 20 25 21 17 23 18 24 19 25
REMARK SMILES IDX 20 26 24 27 21 28 23 29 22 30
REMARK H PARENT 2 12 26 22
ROOT
ATOM      1  S   UNL     1     -11.835  -1.461  -8.989  1.00  0.00    -0.089 SA
ENDROOT
BRANCH   1   2
ATOM      2  C   UNL     1     -13.564  -1.642  -8.549  1.00  0.00    +0.025 A 
ATOM      3  C   UNL     1     -14.170  -1.013  -7.447  1.00  0.00    +0.053 A 
ATOM      4  C   UNL     1     -15.516  -1.273  -7.143  1.00  0.00    +0.015 A 
ATOM      5  C   UNL     1     -16.272  -2.125  -7.946  1.00  0.00    +0.001 A 
ATOM      6  C   UNL     1     -14.342  -2.492  -9.352  1.00  0.00    +0.016 A 
ATOM      7  C   UNL     1     -15.686  -2.730  -9.054  1.00  0.00    +0.001 A 
BRANCH   3   8
ATOM      8  C   UNL     1     -13.462  -0.087  -6.526  1.00  0.00    +0.252 C 
ATOM      9  N   UNL     1     -12.811  -0.665  -5.459  1.00  0.00    -0.355 N 
ATOM     10  O   UNL     1     -13.459   1.117  -6.759  1.00  0.00    -0.269 OA
ATOM     11  C   UNL     1     -12.181   0.140  -4.444  1.00  0.00    +0.143 C 
ATOM     12  H   UNL     1     -12.995  -1.640  -5.254  1.00  0.00    +0.163 HD
ENDBRANCH   3   8
ENDBRANCH   1   2
BRANCH   1  13
ATOM     13  C   UNL     1     -11.968  -0.256 -10.305  1.00  0.00    +0.014 A 
ATOM     14  C   UNL     1     -10.961  -0.192 -11.274  1.00  0.00    +0.016 A 
ATOM     15  C   UNL     1     -13.077   0.598 -10.373  1.00  0.00    +0.043 A 
ATOM     16  C   UNL     1     -11.025   0.736 -12.323  1.00  0.00    +0.014 A 
ATOM     17  C   UNL     1     -13.114   1.521 -11.425  1.00  0.00    +0.067 A 
ATOM     18  C   UNL     1     -12.126   1.614 -12.396  1.00  0.00    +0.027 A 
ATOM     19  N   UNL     1     -14.030   2.482 -11.752  1.00  0.00    -0.277 N 
ATOM     20  C   UNL     1     -12.558   2.666 -13.263  1.00  0.00    +0.093 A 
ATOM     21  N   UNL     1     -13.726   3.184 -12.854  1.00  0.00    -0.175 NA
ATOM     22  H   UNL     1     -14.887   2.709 -11.259  1.00  0.00    +0.190 HD
BRANCH  20  23
ATOM     23  C   UNL     1     -11.842   3.113 -14.421  1.00  0.00    +0.033 C 
ATOM     24  C   UNL     1     -11.421   4.375 -14.622  1.00  0.00    +0.030 C 
BRANCH  24  25
ATOM     25  C   UNL     1     -10.688   4.819 -15.813  1.00  0.00    +0.063 A 
ATOM     26  C   UNL     1     -11.116   5.943 -16.514  1.00  0.00    +0.028 A 
ATOM     27  N   UNL     1      -9.603   4.100 -16.187  1.00  0.00    -0.257 NA
ATOM     28  C   UNL     1     -10.405   6.345 -17.642  1.00  0.00    +0.004 A 
ATOM     29  C   UNL     1      -8.932   4.512 -17.285  1.00  0.00    +0.111 A 
ATOM     30  C   UNL     1      -9.289   5.618 -18.038  1.00  0.00    +0.020 A 
ENDBRANCH  24  25
ENDBRANCH  20  23
ENDBRANCH   1  13
TORSDOF 5
ENDMDL
MODEL 10
REMARK VINA RESULT:    -7.811      6.960     10.573
REMARK INTER + INTRA:         -11.097
REMARK INTER:                 -10.541
REMARK INTRA:                  -0.555
REMARK UNBOUND:                -1.003
REMARK SMILES CNC(=O)c1ccccc1Sc1ccc2c(/C=C/c3ccccn3)n[nH]c2c1
REMARK SMILES IDX 11 1 10 2 5 3 6 4 7 5 9 6 8 7 3 8 2 9 4 10 1 11 12 13 13 14
REMARK SMILES IDX 28 15 14 16 27 17 15 18 26 19 16 20 25 21 17 23 18 24 19 25
REMARK SMILES IDX 20 26 24 27 21 28 23 29 22 30
REMARK H PARENT 2 12 26 22
ROOT
ATOM      1  S   UNL     1      -7.848   4.267 -17.668  1.00  0.00    -0.089 SA
ENDROOT
BRANCH   1   2
ATOM      2  C   UNL     1      -9.347   4.523 -16.718  1.00  0.00    +0.025 A 
ATOM      3  C   UNL     1     -10.312   5.504 -17.011  1.00  0.00    +0.053 A 
ATOM      4  C   UNL     1     -11.419   5.674 -16.165  1.00  0.00    +0.015 A 
ATOM      5  C   UNL     1     -11.593   4.854 -15.051  1.00  0.00    +0.001 A 
ATOM      6  C   UNL     1      -9.541   3.701 -15.595  1.00  0.00    +0.016 A 
ATOM      7  C   UNL     1     -10.656   3.863 -14.771  1.00  0.00    +0.001 A 
BRANCH   3   8
ATOM      8  C   UNL     1     -10.230   6.430 -18.170  1.00  0.00    +0.252 C 
ATOM      9  N   UNL     1      -9.498   7.581 -17.982  1.00  0.00    -0.355 N 
ATOM     10  O   UNL     1     -10.775   6.130 -19.227  1.00  0.00    -0.269 OA
ATOM     11  C   UNL     1      -9.436   8.600 -18.998  1.00  0.00    +0.143 C 
ATOM     12  H   UNL     1      -9.216   7.824 -17.039  1.00  0.00    +0.163 HD
ENDBRANCH   3   8
ENDBRANCH   1   2
BRANCH   1  13
ATOM     13  C   UNL     1      -7.176   2.841 -16.820  1.00  0.00    +0.014 A 
ATOM     14  C   UNL     1      -6.067   3.006 -15.984  1.00  0.00    +0.016 A 
ATOM     15  C   UNL     1      -7.767   1.580 -16.979  1.00  0.00    +0.043 A 
ATOM     16  C   UNL     1      -5.509   1.916 -15.301  1.00  0.00    +0.014 A 
ATOM     17  C   UNL     1      -7.187   0.507 -16.292  1.00  0.00    +0.067 A 
ATOM     18  C   UNL     1      -6.081   0.638 -15.463  1.00  0.00    +0.027 A 
ATOM     19  N   UNL     1      -7.511  -0.821 -16.253  1.00  0.00    -0.277 N 
ATOM     20  C   UNL     1      -5.830  -0.681 -14.972  1.00  0.00    +0.093 A 
ATOM     21  N   UNL     1      -6.716  -1.560 -15.465  1.00  0.00    -0.175 NA
ATOM     22  H   UNL     1      -8.266  -1.285 -16.746  1.00  0.00    +0.190 HD
BRANCH  20  23
ATOM     23  C   UNL     1      -4.772  -1.027 -14.069  1.00  0.00    +0.033 C 
ATOM     24  C   UNL     1      -4.710  -0.648 -12.780  1.00  0.00    +0.030 C 
BRANCH  24  25
ATOM     25  C   UNL     1      -3.621  -1.011 -11.866  1.00  0.00    +0.063 A 
ATOM     26  C   UNL     1      -3.025  -2.266 -11.959  1.00  0.00    +0.028 A 
ATOM     27  N   UNL     1      -3.233  -0.089 -10.953  1.00  0.00    -0.257 NA
ATOM     28  C   UNL     1      -1.992  -2.589 -11.081  1.00  0.00    +0.004 A 
ATOM     29  C   UNL     1      -2.230  -0.429 -10.114  1.00  0.00    +0.111 A 
ATOM     30  C   UNL     1      -1.584  -1.654 -10.139  1.00  0.00    +0.020 A 
ENDBRANCH  24  25
ENDBRANCH  20  23
ENDBRANCH   1  13
TORSDOF 5
ENDMDL
