REMARK SMILES Cc1ccc(=O)n(-c2ccccc2)c1
REMARK SMILES IDX 1 1 2 2 3 3 4 4 5 5 6 6 7 7 14 8 8 9 9 10 13 11 10 12 12 13
REMARK SMILES IDX 11 14
REMARK H PARENT
ROOT
ATOM      1  C   UNL     1       3.594   0.906  -0.754  1.00  0.00    +0.046 C 
ATOM      2  C   UNL     1       2.487   0.115  -0.126  1.00  0.00    -0.034 C 
ATOM      3  C   UNL     1       2.857  -1.008   0.698  1.00  0.00    +0.010 C 
ATOM      4  C   UNL     1       1.915  -1.766   1.266  1.00  0.00    +0.072 C 
ATOM      5  C   UNL     1       0.466  -1.464   1.084  1.00  0.00    +0.255 C 
ATOM      6  O   UNL     1      -0.321  -2.187   1.693  1.00  0.00    -0.269 OA
ATOM      7  N   UNL     1       0.154  -0.356   0.262  1.00  0.00    -0.284 N 
ATOM      8  C   UNL     1       1.188   0.394  -0.310  1.00  0.00    +0.098 C 
ENDROOT
BRANCH   7   9
ATOM      9  C   UNL     1      -1.231   0.002   0.029  1.00  0.00    +0.049 A 
ATOM     10  C   UNL     1      -2.258  -0.955   0.049  1.00  0.00    +0.027 A 
ATOM     11  C   UNL     1      -1.598   1.333  -0.246  1.00  0.00    +0.027 A 
ATOM     12  C   UNL     1      -3.591  -0.601  -0.195  1.00  0.00    +0.002 A 
ATOM     13  C   UNL     1      -2.931   1.689  -0.488  1.00  0.00    +0.002 A 
ATOM     14  C   UNL     1      -3.927   0.721  -0.463  1.00  0.00    +0.000 A 
ENDBRANCH   7   9
TORSDOF 1
