MODEL 1
REMARK VINA RESULT:    -7.901      0.000      0.000
REMARK INTER + INTRA:          -8.550
REMARK INTER:                  -8.362
REMARK INTRA:                  -0.188
REMARK UNBOUND:                -0.188
REMARK SMILES Cc1ccc(=O)n(-c2ccccc2)c1
REMARK SMILES IDX 1 1 2 2 3 3 4 4 5 5 6 6 7 7 14 8 8 9 9 10 13 11 10 12 12 13
REMARK SMILES IDX 11 14
REMARK H PARENT
ROOT
ATOM      1  C   UNL     1     -38.618 157.950   2.955  1.00  0.00    +0.046 C 
ATOM      2  C   UNL     1     -39.576 158.632   2.026  1.00  0.00    -0.034 C 
ATOM      3  C   UNL     1     -40.954 158.721   2.441  1.00  0.00    +0.010 C 
ATOM      4  C   UNL     1     -41.860 159.297   1.647  1.00  0.00    +0.072 C 
ATOM      5  C   UNL     1     -41.475 159.878   0.328  1.00  0.00    +0.255 C 
ATOM      6  O   UNL     1     -42.372 160.435  -0.303  1.00  0.00    -0.269 OA
ATOM      7  N   UNL     1     -40.114 159.760  -0.036  1.00  0.00    -0.284 N 
ATOM      8  C   UNL     1     -39.215 159.139   0.839  1.00  0.00    +0.098 C 
ENDROOT
BRANCH   7   9
ATOM      9  C   UNL     1     -39.657 160.293  -1.304  1.00  0.00    +0.049 A 
ATOM     10  C   UNL     1     -39.618 161.674  -1.557  1.00  0.00    +0.027 A 
ATOM     11  C   UNL     1     -39.250 159.437  -2.345  1.00  0.00    +0.027 A 
ATOM     12  C   UNL     1     -39.192 162.178  -2.792  1.00  0.00    +0.002 A 
ATOM     13  C   UNL     1     -38.821 159.940  -3.580  1.00  0.00    +0.002 A 
ATOM     14  C   UNL     1     -38.794 161.311  -3.803  1.00  0.00    +0.000 A 
ENDBRANCH   7   9
TORSDOF 1
ENDMDL
MODEL 2
REMARK VINA RESULT:    -7.786      1.784      5.501
REMARK INTER + INTRA:          -8.429
REMARK INTER:                  -8.151
REMARK INTRA:                  -0.279
REMARK UNBOUND:                -0.188
REMARK SMILES Cc1ccc(=O)n(-c2ccccc2)c1
REMARK SMILES IDX 1 1 2 2 3 3 4 4 5 5 6 6 7 7 14 8 8 9 9 10 13 11 10 12 12 13
REMARK SMILES IDX 11 14
REMARK H PARENT
ROOT
ATOM      1  C   UNL     1     -38.942 164.629  -3.620  1.00  0.00    +0.046 C 
ATOM      2  C   UNL     1     -38.975 163.144  -3.426  1.00  0.00    -0.034 C 
ATOM      3  C   UNL     1     -38.600 162.318  -4.546  1.00  0.00    +0.010 C 
ATOM      4  C   UNL     1     -38.632 160.987  -4.443  1.00  0.00    +0.072 C 
ATOM      5  C   UNL     1     -39.033 160.320  -3.171  1.00  0.00    +0.255 C 
ATOM      6  O   UNL     1     -38.976 159.091  -3.159  1.00  0.00    -0.269 OA
ATOM      7  N   UNL     1     -39.398 161.173  -2.103  1.00  0.00    -0.284 N 
ATOM      8  C   UNL     1     -39.350 162.560  -2.278  1.00  0.00    +0.098 C 
ENDROOT
BRANCH   7   9
ATOM      9  C   UNL     1     -39.806 160.605  -0.833  1.00  0.00    +0.049 A 
ATOM     10  C   UNL     1     -38.871 160.209   0.137  1.00  0.00    +0.027 A 
ATOM     11  C   UNL     1     -41.167 160.411  -0.531  1.00  0.00    +0.027 A 
ATOM     12  C   UNL     1     -39.276 159.645   1.353  1.00  0.00    +0.002 A 
ATOM     13  C   UNL     1     -41.573 159.849   0.686  1.00  0.00    +0.002 A 
ATOM     14  C   UNL     1     -40.627 159.465   1.628  1.00  0.00    +0.000 A 
ENDBRANCH   7   9
TORSDOF 1
ENDMDL
MODEL 3
REMARK VINA RESULT:    -7.677      1.418      5.169
REMARK INTER + INTRA:          -8.313
REMARK INTER:                  -8.201
REMARK INTRA:                  -0.112
REMARK UNBOUND:                -0.188
REMARK SMILES Cc1ccc(=O)n(-c2ccccc2)c1
REMARK SMILES IDX 1 1 2 2 3 3 4 4 5 5 6 6 7 7 14 8 8 9 9 10 13 11 10 12 12 13
REMARK SMILES IDX 11 14
REMARK H PARENT
ROOT
ATOM      1  C   UNL     1     -39.078 163.188  -2.914  1.00  0.00    +0.046 C 
ATOM      2  C   UNL     1     -39.149 161.740  -2.535  1.00  0.00    -0.034 C 
ATOM      3  C   UNL     1     -38.596 160.783  -3.460  1.00  0.00    +0.010 C 
ATOM      4  C   UNL     1     -38.651 159.476  -3.190  1.00  0.00    +0.072 C 
ATOM      5  C   UNL     1     -39.260 158.972  -1.925  1.00  0.00    +0.255 C 
ATOM      6  O   UNL     1     -39.211 157.757  -1.744  1.00  0.00    -0.269 OA
ATOM      7  N   UNL     1     -39.794 159.950  -1.053  1.00  0.00    -0.284 N 
ATOM      8  C   UNL     1     -39.712 161.304  -1.398  1.00  0.00    +0.098 C 
ENDROOT
BRANCH   7   9
ATOM      9  C   UNL     1     -40.410 159.544   0.194  1.00  0.00    +0.049 A 
ATOM     10  C   UNL     1     -41.757 159.818   0.481  1.00  0.00    +0.027 A 
ATOM     11  C   UNL     1     -39.667 158.869   1.182  1.00  0.00    +0.027 A 
ATOM     12  C   UNL     1     -42.337 159.437   1.697  1.00  0.00    +0.002 A 
ATOM     13  C   UNL     1     -40.247 158.485   2.398  1.00  0.00    +0.002 A 
ATOM     14  C   UNL     1     -41.582 158.770   2.655  1.00  0.00    +0.000 A 
ENDBRANCH   7   9
TORSDOF 1
ENDMDL
MODEL 4
REMARK VINA RESULT:    -7.500      3.239      6.754
REMARK INTER + INTRA:          -8.126
REMARK INTER:                  -8.505
REMARK INTRA:                   0.379
REMARK UNBOUND:                -0.188
REMARK SMILES Cc1ccc(=O)n(-c2ccccc2)c1
REMARK SMILES IDX 1 1 2 2 3 3 4 4 5 5 6 6 7 7 14 8 8 9 9 10 13 11 10 12 12 13
REMARK SMILES IDX 11 14
REMARK H PARENT
ROOT
ATOM      1  C   UNL     1     -38.035 162.936  -8.030  1.00  0.00    +0.046 C 
ATOM      2  C   UNL     1     -38.247 163.302  -6.592  1.00  0.00    -0.034 C 
ATOM      3  C   UNL     1     -38.163 164.698  -6.242  1.00  0.00    +0.010 C 
ATOM      4  C   UNL     1     -38.319 165.085  -4.973  1.00  0.00    +0.072 C 
ATOM      5  C   UNL     1     -38.604 164.096  -3.893  1.00  0.00    +0.255 C 
ATOM      6  O   UNL     1     -38.787 164.558  -2.768  1.00  0.00    -0.269 OA
ATOM      7  N   UNL     1     -38.671 162.739  -4.286  1.00  0.00    -0.284 N 
ATOM      8  C   UNL     1     -38.491 162.399  -5.631  1.00  0.00    +0.098 C 
ENDROOT
BRANCH   7   9
ATOM      9  C   UNL     1     -38.938 161.714  -3.297  1.00  0.00    +0.049 A 
ATOM     10  C   UNL     1     -39.422 162.027  -2.016  1.00  0.00    +0.027 A 
ATOM     11  C   UNL     1     -38.703 160.355  -3.581  1.00  0.00    +0.027 A 
ATOM     12  C   UNL     1     -39.660 161.030  -1.062  1.00  0.00    +0.002 A 
ATOM     13  C   UNL     1     -38.943 159.357  -2.628  1.00  0.00    +0.002 A 
ATOM     14  C   UNL     1     -39.421 159.696  -1.368  1.00  0.00    +0.000 A 
ENDBRANCH   7   9
TORSDOF 1
ENDMDL
MODEL 5
REMARK VINA RESULT:    -7.423      2.513      5.772
REMARK INTER + INTRA:          -8.045
REMARK INTER:                  -8.087
REMARK INTRA:                   0.042
REMARK UNBOUND:                -0.188
REMARK SMILES Cc1ccc(=O)n(-c2ccccc2)c1
REMARK SMILES IDX 1 1 2 2 3 3 4 4 5 5 6 6 7 7 14 8 8 9 9 10 13 11 10 12 12 13
REMARK SMILES IDX 11 14
REMARK H PARENT
ROOT
ATOM      1  C   UNL     1     -38.383 163.259  -6.449  1.00  0.00    +0.046 C 
ATOM      2  C   UNL     1     -38.547 163.217  -4.960  1.00  0.00    -0.034 C 
ATOM      3  C   UNL     1     -38.503 164.471  -4.252  1.00  0.00    +0.010 C 
ATOM      4  C   UNL     1     -38.619 164.498  -2.921  1.00  0.00    +0.072 C 
ATOM      5  C   UNL     1     -38.816 163.244  -2.138  1.00  0.00    +0.255 C 
ATOM      6  O   UNL     1     -38.968 163.379  -0.924  1.00  0.00    -0.269 OA
ATOM      7  N   UNL     1     -38.846 162.039  -2.878  1.00  0.00    -0.284 N 
ATOM      8  C   UNL     1     -38.712 162.079  -4.270  1.00  0.00    +0.098 C 
ENDROOT
BRANCH   7   9
ATOM      9  C   UNL     1     -39.029 160.776  -2.191  1.00  0.00    +0.049 A 
ATOM     10  C   UNL     1     -40.025 160.597  -1.219  1.00  0.00    +0.027 A 
ATOM     11  C   UNL     1     -38.193 159.676  -2.466  1.00  0.00    +0.027 A 
ATOM     12  C   UNL     1     -40.181 159.377  -0.549  1.00  0.00    +0.002 A 
ATOM     13  C   UNL     1     -38.350 158.455  -1.798  1.00  0.00    +0.002 A 
ATOM     14  C   UNL     1     -39.344 158.306  -0.839  1.00  0.00    +0.000 A 
ENDBRANCH   7   9
TORSDOF 1
ENDMDL
MODEL 6
REMARK VINA RESULT:    -7.377      2.514      3.730
REMARK INTER + INTRA:          -7.996
REMARK INTER:                  -8.366
REMARK INTRA:                   0.370
REMARK UNBOUND:                -0.188
REMARK SMILES Cc1ccc(=O)n(-c2ccccc2)c1
REMARK SMILES IDX 1 1 2 2 3 3 4 4 5 5 6 6 7 7 14 8 8 9 9 10 13 11 10 12 12 13
REMARK SMILES IDX 11 14
REMARK H PARENT
ROOT
ATOM      1  C   UNL     1     -39.190 157.802  -2.022  1.00  0.00    +0.046 C 
ATOM      2  C   UNL     1     -39.137 159.281  -1.785  1.00  0.00    -0.034 C 
ATOM      3  C   UNL     1     -39.297 159.743  -0.430  1.00  0.00    +0.010 C 
ATOM      4  C   UNL     1     -39.282 161.051  -0.159  1.00  0.00    +0.072 C 
ATOM      5  C   UNL     1     -39.080 162.062  -1.236  1.00  0.00    +0.255 C 
ATOM      6  O   UNL     1     -39.026 163.237  -0.876  1.00  0.00    -0.269 OA
ATOM      7  N   UNL     1     -38.933 161.559  -2.550  1.00  0.00    -0.284 N 
ATOM      8  C   UNL     1     -38.965 160.177  -2.769  1.00  0.00    +0.098 C 
ENDROOT
BRANCH   7   9
ATOM      9  C   UNL     1     -38.738 162.475  -3.656  1.00  0.00    +0.049 A 
ATOM     10  C   UNL     1     -38.962 163.855  -3.524  1.00  0.00    +0.027 A 
ATOM     11  C   UNL     1     -38.330 162.007  -4.919  1.00  0.00    +0.027 A 
ATOM     12  C   UNL     1     -38.787 164.729  -4.605  1.00  0.00    +0.002 A 
ATOM     13  C   UNL     1     -38.152 162.881  -6.000  1.00  0.00    +0.002 A 
ATOM     14  C   UNL     1     -38.382 164.242  -5.842  1.00  0.00    +0.000 A 
ENDBRANCH   7   9
TORSDOF 1
ENDMDL
MODEL 7
REMARK VINA RESULT:    -7.327      2.091      3.063
REMARK INTER + INTRA:          -7.943
REMARK INTER:                  -7.906
REMARK INTRA:                  -0.036
REMARK UNBOUND:                -0.188
REMARK SMILES Cc1ccc(=O)n(-c2ccccc2)c1
REMARK SMILES IDX 1 1 2 2 3 3 4 4 5 5 6 6 7 7 14 8 8 9 9 10 13 11 10 12 12 13
REMARK SMILES IDX 11 14
REMARK H PARENT
ROOT
ATOM      1  C   UNL     1     -42.422 160.619   0.652  1.00  0.00    +0.046 C 
ATOM      2  C   UNL     1     -41.169 160.282  -0.098  1.00  0.00    -0.034 C 
ATOM      3  C   UNL     1     -40.387 159.170   0.381  1.00  0.00    +0.010 C 
ATOM      4  C   UNL     1     -39.247 158.835  -0.231  1.00  0.00    +0.072 C 
ATOM      5  C   UNL     1     -38.765 159.581  -1.429  1.00  0.00    +0.255 C 
ATOM      6  O   UNL     1     -37.735 159.160  -1.953  1.00  0.00    -0.269 OA
ATOM      7  N   UNL     1     -39.564 160.667  -1.856  1.00  0.00    -0.284 N 
ATOM      8  C   UNL     1     -40.744 160.971  -1.167  1.00  0.00    +0.098 C 
ENDROOT
BRANCH   7   9
ATOM      9  C   UNL     1     -39.163 161.448  -3.009  1.00  0.00    +0.049 A 
ATOM     10  C   UNL     1     -39.023 162.843  -2.948  1.00  0.00    +0.027 A 
ATOM     11  C   UNL     1     -38.915 160.831  -4.250  1.00  0.00    +0.027 A 
ATOM     12  C   UNL     1     -38.652 163.590  -4.073  1.00  0.00    +0.002 A 
ATOM     13  C   UNL     1     -38.541 161.576  -5.376  1.00  0.00    +0.002 A 
ATOM     14  C   UNL     1     -38.411 162.956  -5.287  1.00  0.00    +0.000 A 
ENDBRANCH   7   9
TORSDOF 1
ENDMDL
MODEL 8
REMARK VINA RESULT:    -7.309      2.102      3.331
REMARK INTER + INTRA:          -7.924
REMARK INTER:                  -7.861
REMARK INTRA:                  -0.064
REMARK UNBOUND:                -0.188
REMARK SMILES Cc1ccc(=O)n(-c2ccccc2)c1
REMARK SMILES IDX 1 1 2 2 3 3 4 4 5 5 6 6 7 7 14 8 8 9 9 10 13 11 10 12 12 13
REMARK SMILES IDX 11 14
REMARK H PARENT
ROOT
ATOM      1  C   UNL     1     -42.429 160.619   0.632  1.00  0.00    +0.046 C 
ATOM      2  C   UNL     1     -41.172 160.295  -0.117  1.00  0.00    -0.034 C 
ATOM      3  C   UNL     1     -40.384 159.184   0.355  1.00  0.00    +0.010 C 
ATOM      4  C   UNL     1     -39.241 158.861  -0.257  1.00  0.00    +0.072 C 
ATOM      5  C   UNL     1     -38.761 159.618  -1.448  1.00  0.00    +0.255 C 
ATOM      6  O   UNL     1     -37.727 159.208  -1.973  1.00  0.00    -0.269 OA
ATOM      7  N   UNL     1     -39.566 160.703  -1.869  1.00  0.00    -0.284 N 
ATOM      8  C   UNL     1     -40.749 160.994  -1.181  1.00  0.00    +0.098 C 
ENDROOT
BRANCH   7   9
ATOM      9  C   UNL     1     -39.167 161.494  -3.016  1.00  0.00    +0.049 A 
ATOM     10  C   UNL     1     -38.932 160.913  -4.272  1.00  0.00    +0.027 A 
ATOM     11  C   UNL     1     -38.983 162.885  -2.906  1.00  0.00    +0.027 A 
ATOM     12  C   UNL     1     -38.530 161.685  -5.370  1.00  0.00    +0.002 A 
ATOM     13  C   UNL     1     -38.583 163.659  -4.004  1.00  0.00    +0.002 A 
ATOM     14  C   UNL     1     -38.356 163.058  -5.235  1.00  0.00    +0.000 A 
ENDBRANCH   7   9
TORSDOF 1
ENDMDL
MODEL 9
REMARK VINA RESULT:    -7.000      1.741      5.397
REMARK INTER + INTRA:          -7.597
REMARK INTER:                  -7.307
REMARK INTRA:                  -0.291
REMARK UNBOUND:                -0.188
REMARK SMILES Cc1ccc(=O)n(-c2ccccc2)c1
REMARK SMILES IDX 1 1 2 2 3 3 4 4 5 5 6 6 7 7 14 8 8 9 9 10 13 11 10 12 12 13
REMARK SMILES IDX 11 14
REMARK H PARENT
ROOT
ATOM      1  C   UNL     1     -39.006 160.952  -5.523  1.00  0.00    +0.046 C 
ATOM      2  C   UNL     1     -39.020 161.544  -4.146  1.00  0.00    -0.034 C 
ATOM      3  C   UNL     1     -38.707 162.945  -4.022  1.00  0.00    +0.010 C 
ATOM      4  C   UNL     1     -38.680 163.525  -2.819  1.00  0.00    +0.072 C 
ATOM      5  C   UNL     1     -38.991 162.753  -1.581  1.00  0.00    +0.255 C 
ATOM      6  O   UNL     1     -38.994 163.389  -0.529  1.00  0.00    -0.269 OA
ATOM      7  N   UNL     1     -39.286 161.380  -1.755  1.00  0.00    -0.284 N 
ATOM      8  C   UNL     1     -39.291 160.831  -3.043  1.00  0.00    +0.098 C 
ENDROOT
BRANCH   7   9
ATOM      9  C   UNL     1     -39.593 160.557  -0.603  1.00  0.00    +0.049 A 
ATOM     10  C   UNL     1     -38.588 159.935   0.154  1.00  0.00    +0.027 A 
ATOM     11  C   UNL     1     -40.926 160.334  -0.207  1.00  0.00    +0.027 A 
ATOM     12  C   UNL     1     -38.897 159.127   1.256  1.00  0.00    +0.002 A 
ATOM     13  C   UNL     1     -41.237 159.528   0.895  1.00  0.00    +0.002 A 
ATOM     14  C   UNL     1     -40.221 158.924   1.626  1.00  0.00    +0.000 A 
ENDBRANCH   7   9
TORSDOF 1
ENDMDL
MODEL 10
REMARK VINA RESULT:    -6.954      3.942      5.645
REMARK INTER + INTRA:          -7.548
REMARK INTER:                  -7.943
REMARK INTRA:                   0.394
REMARK UNBOUND:                -0.188
REMARK SMILES Cc1ccc(=O)n(-c2ccccc2)c1
REMARK SMILES IDX 1 1 2 2 3 3 4 4 5 5 6 6 7 7 14 8 8 9 9 10 13 11 10 12 12 13
REMARK SMILES IDX 11 14
REMARK H PARENT
ROOT
ATOM      1  C   UNL     1     -38.962 159.336  -2.781  1.00  0.00    +0.046 C 
ATOM      2  C   UNL     1     -38.904 160.820  -2.985  1.00  0.00    -0.034 C 
ATOM      3  C   UNL     1     -39.129 161.659  -1.835  1.00  0.00    +0.010 C 
ATOM      4  C   UNL     1     -39.114 162.989  -1.958  1.00  0.00    +0.072 C 
ATOM      5  C   UNL     1     -38.845 163.640  -3.272  1.00  0.00    +0.255 C 
ATOM      6  O   UNL     1     -38.797 164.869  -3.270  1.00  0.00    -0.269 OA
ATOM      7  N   UNL     1     -38.636 162.775  -4.371  1.00  0.00    -0.284 N 
ATOM      8  C   UNL     1     -38.672 161.389  -4.177  1.00  0.00    +0.098 C 
ENDROOT
BRANCH   7   9
ATOM      9  C   UNL     1     -38.374 163.328  -5.685  1.00  0.00    +0.049 A 
ATOM     10  C   UNL     1     -38.493 164.701  -5.949  1.00  0.00    +0.027 A 
ATOM     11  C   UNL     1     -38.005 162.496  -6.759  1.00  0.00    +0.027 A 
ATOM     12  C   UNL     1     -38.254 165.223  -7.227  1.00  0.00    +0.002 A 
ATOM     13  C   UNL     1     -37.764 163.017  -8.037  1.00  0.00    +0.002 A 
ATOM     14  C   UNL     1     -37.889 164.380  -8.270  1.00  0.00    +0.000 A 
ENDBRANCH   7   9
TORSDOF 1
ENDMDL
