MODEL 1
REMARK VINA RESULT:    -8.769      0.000      0.000
REMARK INTER + INTRA:         -12.370
REMARK INTER:                 -11.332
REMARK INTRA:                  -1.037
REMARK UNBOUND:                -1.037
REMARK SMILES CCn1c(=O)c(-c2cc(NC(=O)Nc3ccccc3)c(F)cc2Br)cc2cnc(NC)cc21
REMARK SMILES IDX 3 1 4 2 5 3 6 4 25 5 26 6 27 7 28 8 29 9 32 10 33 11 2 12
REMARK SMILES IDX 1 13 7 14 8 15 23 16 9 17 22 18 20 19 24 20 21 21 10 22
REMARK SMILES IDX 11 23 12 24 13 25 14 28 15 29 19 30 16 31 18 32 17 33 30 34
REMARK SMILES IDX 31 35
REMARK H PARENT 10 26 13 27 30 36
ROOT
ATOM      1  N   UNL     1     -12.794  -2.951 -10.571  1.00  0.00    -0.308 N 
ATOM      2  C   UNL     1     -11.683  -2.629 -11.355  1.00  0.00    +0.258 C 
ATOM      3  O   UNL     1     -11.154  -3.424 -12.133  1.00  0.00    -0.269 OA
ATOM      4  C   UNL     1     -11.130  -1.240 -11.233  1.00  0.00    +0.049 C 
ATOM      5  C   UNL     1     -11.680  -0.353 -10.391  1.00  0.00    +0.026 C 
ATOM      6  C   UNL     1     -12.817  -0.733  -9.565  1.00  0.00    +0.018 A 
ATOM      7  C   UNL     1     -13.382   0.160  -8.664  1.00  0.00    +0.123 A 
ATOM      8  N   UNL     1     -14.429  -0.129  -7.861  1.00  0.00    -0.239 NA
ATOM      9  C   UNL     1     -14.950  -1.364  -7.949  1.00  0.00    +0.127 A 
ATOM     10  C   UNL     1     -14.442  -2.329  -8.813  1.00  0.00    +0.073 A 
ATOM     11  C   UNL     1     -13.361  -2.016  -9.647  1.00  0.00    +0.056 A 
ENDROOT
BRANCH   1  12
ATOM     12  C   UNL     1     -13.318  -4.311 -10.684  1.00  0.00    +0.122 C 
ATOM     13  C   UNL     1     -12.607  -5.279  -9.748  1.00  0.00    +0.028 C 
ENDBRANCH   1  12
BRANCH   4  14
ATOM     14  C   UNL     1      -9.961  -0.836 -12.038  1.00  0.00    +0.004 A 
ATOM     15  C   UNL     1     -10.182  -0.030 -13.173  1.00  0.00    +0.039 A 
ATOM     16  C   UNL     1      -8.650  -1.231 -11.721  1.00  0.00    +0.029 A 
ATOM     17  C   UNL     1      -9.116   0.376 -13.978  1.00  0.00    +0.079 A 
ATOM     18  C   UNL     1      -7.582  -0.843 -12.529  1.00  0.00    +0.057 A 
ATOM     19  C   UNL     1      -7.826  -0.053 -13.646  1.00  0.00    +0.147 A 
ATOM     20 Br   UNL     1      -8.250  -2.279 -10.185  1.00  0.00    -0.050 Br
ATOM     21  F   UNL     1      -6.790   0.317 -14.418  1.00  0.00    -0.205 F 
BRANCH  17  22
ATOM     22  N   UNL     1      -9.251   1.179 -15.131  1.00  0.00    -0.305 N 
ATOM     23  C   UNL     1      -9.193   2.562 -15.203  1.00  0.00    +0.323 C 
ATOM     24  O   UNL     1      -8.909   3.292 -14.263  1.00  0.00    -0.248 OA
ATOM     25  N   UNL     1      -9.498   2.985 -16.487  1.00  0.00    -0.308 N 
ATOM     26  H   UNL     1      -9.198   0.676 -16.009  1.00  0.00    +0.171 HD
ATOM     27  H   UNL     1      -9.928   2.298 -17.087  1.00  0.00    +0.171 HD
BRANCH  25  28
ATOM     28  C   UNL     1      -9.454   4.302 -16.993  1.00  0.00    +0.042 A 
ATOM     29  C   UNL     1     -10.338   5.313 -16.615  1.00  0.00    +0.026 A 
ATOM     30  C   UNL     1      -8.442   4.599 -17.915  1.00  0.00    +0.026 A 
ATOM     31  C   UNL     1     -10.220   6.598 -17.157  1.00  0.00    +0.002 A 
ATOM     32  C   UNL     1      -8.324   5.882 -18.457  1.00  0.00    +0.002 A 
ATOM     33  C   UNL     1      -9.215   6.882 -18.078  1.00  0.00    +0.000 A 
ENDBRANCH  25  28
ENDBRANCH  17  22
ENDBRANCH   4  14
BRANCH   9  34
ATOM     34  N   UNL     1     -16.017  -1.626  -7.087  1.00  0.00    -0.373 N 
ATOM     35  C   UNL     1     -16.579  -0.440  -6.463  1.00  0.00    +0.141 C 
ATOM     36  H   UNL     1     -15.614  -2.251  -6.387  1.00  0.00    +0.161 HD
ENDBRANCH   9  34
TORSDOF 5
ENDMDL
MODEL 2
REMARK VINA RESULT:    -8.574      3.768      9.820
REMARK INTER + INTRA:         -12.118
REMARK INTER:                 -12.324
REMARK INTRA:                   0.206
REMARK UNBOUND:                -1.037
REMARK SMILES CCn1c(=O)c(-c2cc(NC(=O)Nc3ccccc3)c(F)cc2Br)cc2cnc(NC)cc21
REMARK SMILES IDX 3 1 4 2 5 3 6 4 25 5 26 6 27 7 28 8 29 9 32 10 33 11 2 12
REMARK SMILES IDX 1 13 7 14 8 15 23 16 9 17 22 18 20 19 24 20 21 21 10 22
REMARK SMILES IDX 11 23 12 24 13 25 14 28 15 29 19 30 16 31 18 32 17 33 30 34
REMARK SMILES IDX 31 35
REMARK H PARENT 10 26 13 27 30 36
ROOT
ATOM      1  N   UNL     1      -7.177   1.419 -14.564  1.00  0.00    -0.308 N 
ATOM      2  C   UNL     1      -8.373   2.020 -14.163  1.00  0.00    +0.258 C 
ATOM      3  O   UNL     1      -8.720   2.109 -12.985  1.00  0.00    -0.269 OA
ATOM      4  C   UNL     1      -9.255   2.585 -15.237  1.00  0.00    +0.049 C 
ATOM      5  C   UNL     1      -8.907   2.500 -16.528  1.00  0.00    +0.026 C 
ATOM      6  C   UNL     1      -7.669   1.837 -16.912  1.00  0.00    +0.018 A 
ATOM      7  C   UNL     1      -7.305   1.709 -18.247  1.00  0.00    +0.123 A 
ATOM      8  N   UNL     1      -6.178   1.098 -18.673  1.00  0.00    -0.239 NA
ATOM      9  C   UNL     1      -5.364   0.585 -17.736  1.00  0.00    +0.127 A 
ATOM     10  C   UNL     1      -5.654   0.653 -16.377  1.00  0.00    +0.073 A 
ATOM     11  C   UNL     1      -6.820   1.296 -15.945  1.00  0.00    +0.056 A 
ENDROOT
BRANCH   1  12
ATOM     12  C   UNL     1      -6.329   0.856 -13.514  1.00  0.00    +0.122 C 
ATOM     13  C   UNL     1      -6.746  -0.558 -13.137  1.00  0.00    +0.028 C 
ENDBRANCH   1  12
BRANCH   4  14
ATOM     14  C   UNL     1     -10.529   3.239 -14.878  1.00  0.00    +0.004 A 
ATOM     15  C   UNL     1     -11.379   2.582 -13.966  1.00  0.00    +0.039 A 
ATOM     16  C   UNL     1     -10.923   4.476 -15.415  1.00  0.00    +0.029 A 
ATOM     17  C   UNL     1     -12.601   3.147 -13.594  1.00  0.00    +0.079 A 
ATOM     18  C   UNL     1     -12.149   5.040 -15.062  1.00  0.00    +0.057 A 
ATOM     19  C   UNL     1     -12.973   4.369 -14.166  1.00  0.00    +0.147 A 
ATOM     20 Br   UNL     1      -9.822   5.458 -16.615  1.00  0.00    -0.050 Br
ATOM     21  F   UNL     1     -14.151   4.921 -13.830  1.00  0.00    -0.205 F 
BRANCH  17  22
ATOM     22  N   UNL     1     -13.511   2.554 -12.693  1.00  0.00    -0.305 N 
ATOM     23  C   UNL     1     -13.211   1.732 -11.617  1.00  0.00    +0.323 C 
ATOM     24  O   UNL     1     -12.077   1.483 -11.233  1.00  0.00    -0.248 OA
ATOM     25  N   UNL     1     -14.379   1.246 -11.049  1.00  0.00    -0.308 N 
ATOM     26  H   UNL     1     -14.453   2.922 -12.734  1.00  0.00    +0.171 HD
ATOM     27  H   UNL     1     -15.214   1.351 -11.604  1.00  0.00    +0.171 HD
BRANCH  25  28
ATOM     28  C   UNL     1     -14.508   0.461  -9.884  1.00  0.00    +0.042 A 
ATOM     29  C   UNL     1     -14.127  -0.878  -9.799  1.00  0.00    +0.026 A 
ATOM     30  C   UNL     1     -15.033   1.088  -8.746  1.00  0.00    +0.026 A 
ATOM     31  C   UNL     1     -14.278  -1.585  -8.601  1.00  0.00    +0.002 A 
ATOM     32  C   UNL     1     -15.185   0.383  -7.549  1.00  0.00    +0.002 A 
ATOM     33  C   UNL     1     -14.808  -0.955  -7.477  1.00  0.00    +0.000 A 
ENDBRANCH  25  28
ENDBRANCH  17  22
ENDBRANCH   4  14
BRANCH   9  34
ATOM     34  N   UNL     1      -4.223  -0.056 -18.222  1.00  0.00    -0.373 N 
ATOM     35  C   UNL     1      -3.643  -1.015 -17.296  1.00  0.00    +0.141 C 
ATOM     36  H   UNL     1      -3.575   0.712 -18.406  1.00  0.00    +0.161 HD
ENDBRANCH   9  34
TORSDOF 5
ENDMDL
MODEL 3
REMARK VINA RESULT:    -8.495      5.521      7.894
REMARK INTER + INTRA:         -12.016
REMARK INTER:                 -11.921
REMARK INTRA:                  -0.094
REMARK UNBOUND:                -1.037
REMARK SMILES CCn1c(=O)c(-c2cc(NC(=O)Nc3ccccc3)c(F)cc2Br)cc2cnc(NC)cc21
REMARK SMILES IDX 3 1 4 2 5 3 6 4 25 5 26 6 27 7 28 8 29 9 32 10 33 11 2 12
REMARK SMILES IDX 1 13 7 14 8 15 23 16 9 17 22 18 20 19 24 20 21 21 10 22
REMARK SMILES IDX 11 23 12 24 13 25 14 28 15 29 19 30 16 31 18 32 17 33 30 34
REMARK SMILES IDX 31 35
REMARK H PARENT 10 26 13 27 30 36
ROOT
ATOM      1  N   UNL     1      -6.001  -0.268 -15.991  1.00  0.00    -0.308 N 
ATOM      2  C   UNL     1      -7.190   0.466 -15.984  1.00  0.00    +0.258 C 
ATOM      3  O   UNL     1      -7.830   0.721 -17.005  1.00  0.00    -0.269 OA
ATOM      4  C   UNL     1      -7.697   0.948 -14.657  1.00  0.00    +0.049 C 
ATOM      5  C   UNL     1      -7.020   0.691 -13.529  1.00  0.00    +0.026 C 
ATOM      6  C   UNL     1      -5.768  -0.048 -13.577  1.00  0.00    +0.018 A 
ATOM      7  C   UNL     1      -5.035  -0.299 -12.423  1.00  0.00    +0.123 A 
ATOM      8  N   UNL     1      -3.862  -0.968 -12.397  1.00  0.00    -0.239 NA
ATOM      9  C   UNL     1      -3.382  -1.417 -13.569  1.00  0.00    +0.127 A 
ATOM     10  C   UNL     1      -4.040  -1.202 -14.776  1.00  0.00    +0.073 A 
ATOM     11  C   UNL     1      -5.260  -0.514 -14.791  1.00  0.00    +0.056 A 
ENDROOT
BRANCH   1  12
ATOM     12  C   UNL     1      -5.504  -0.721 -17.290  1.00  0.00    +0.122 C 
ATOM     13  C   UNL     1      -4.558   0.287 -17.925  1.00  0.00    +0.028 C 
ENDBRANCH   1  12
BRANCH   4  14
ATOM     14  C   UNL     1      -8.950   1.724 -14.583  1.00  0.00    +0.004 A 
ATOM     15  C   UNL     1      -9.025   2.937 -15.295  1.00  0.00    +0.039 A 
ATOM     16  C   UNL     1     -10.057   1.302 -13.827  1.00  0.00    +0.029 A 
ATOM     17  C   UNL     1     -10.182   3.718 -15.256  1.00  0.00    +0.079 A 
ATOM     18  C   UNL     1     -11.211   2.084 -13.769  1.00  0.00    +0.057 A 
ATOM     19  C   UNL     1     -11.257   3.280 -14.475  1.00  0.00    +0.147 A 
ATOM     20 Br   UNL     1     -10.067  -0.342 -12.871  1.00  0.00    -0.050 Br
ATOM     21  F   UNL     1     -12.373   4.026 -14.415  1.00  0.00    -0.205 F 
BRANCH  17  22
ATOM     22  N   UNL     1     -10.336   4.946 -15.935  1.00  0.00    -0.305 N 
ATOM     23  C   UNL     1      -9.946   5.243 -17.232  1.00  0.00    +0.323 C 
ATOM     24  O   UNL     1      -9.491   4.425 -18.021  1.00  0.00    -0.248 OA
ATOM     25  N   UNL     1     -10.152   6.587 -17.496  1.00  0.00    -0.308 N 
ATOM     26  H   UNL     1     -10.960   5.605 -15.487  1.00  0.00    +0.171 HD
ATOM     27  H   UNL     1     -10.315   7.173 -16.691  1.00  0.00    +0.171 HD
BRANCH  25  28
ATOM     28  C   UNL     1      -9.976   7.262 -18.722  1.00  0.00    +0.042 A 
ATOM     29  C   UNL     1     -10.344   6.736 -19.962  1.00  0.00    +0.026 A 
ATOM     30  C   UNL     1      -9.415   8.545 -18.672  1.00  0.00    +0.026 A 
ATOM     31  C   UNL     1     -10.144   7.476 -21.133  1.00  0.00    +0.002 A 
ATOM     32  C   UNL     1      -9.215   9.283 -19.842  1.00  0.00    +0.002 A 
ATOM     33  C   UNL     1      -9.579   8.747 -21.073  1.00  0.00    +0.000 A 
ENDBRANCH  25  28
ENDBRANCH  17  22
ENDBRANCH   4  14
BRANCH   9  34
ATOM     34  N   UNL     1      -2.158  -2.084 -13.498  1.00  0.00    -0.373 N 
ATOM     35  C   UNL     1      -1.198  -1.668 -14.507  1.00  0.00    +0.141 C 
ATOM     36  H   UNL     1      -2.411  -3.066 -13.617  1.00  0.00    +0.161 HD
ENDBRANCH   9  34
TORSDOF 5
ENDMDL
MODEL 4
REMARK VINA RESULT:    -8.332      3.328     10.046
REMARK INTER + INTRA:         -11.805
REMARK INTER:                 -12.330
REMARK INTRA:                   0.526
REMARK UNBOUND:                -1.037
REMARK SMILES CCn1c(=O)c(-c2cc(NC(=O)Nc3ccccc3)c(F)cc2Br)cc2cnc(NC)cc21
REMARK SMILES IDX 3 1 4 2 5 3 6 4 25 5 26 6 27 7 28 8 29 9 32 10 33 11 2 12
REMARK SMILES IDX 1 13 7 14 8 15 23 16 9 17 22 18 20 19 24 20 21 21 10 22
REMARK SMILES IDX 11 23 12 24 13 25 14 28 15 29 19 30 16 31 18 32 17 33 30 34
REMARK SMILES IDX 31 35
REMARK H PARENT 10 26 13 27 30 36
ROOT
ATOM      1  N   UNL     1      -9.098   2.113 -15.847  1.00  0.00    -0.308 N 
ATOM      2  C   UNL     1      -9.827   1.612 -14.766  1.00  0.00    +0.258 C 
ATOM      3  O   UNL     1      -9.684   0.470 -14.327  1.00  0.00    -0.269 OA
ATOM      4  C   UNL     1     -10.819   2.531 -14.116  1.00  0.00    +0.049 C 
ATOM      5  C   UNL     1     -11.000   3.779 -14.572  1.00  0.00    +0.026 C 
ATOM      6  C   UNL     1     -10.247   4.256 -15.723  1.00  0.00    +0.018 A 
ATOM      7  C   UNL     1     -10.443   5.535 -16.231  1.00  0.00    +0.123 A 
ATOM      8  N   UNL     1      -9.787   6.037 -17.300  1.00  0.00    -0.239 NA
ATOM      9  C   UNL     1      -8.889   5.241 -17.901  1.00  0.00    +0.127 A 
ATOM     10  C   UNL     1      -8.636   3.942 -17.470  1.00  0.00    +0.073 A 
ATOM     11  C   UNL     1      -9.315   3.433 -16.357  1.00  0.00    +0.056 A 
ENDROOT
BRANCH   1  12
ATOM     12  C   UNL     1      -8.143   1.207 -16.485  1.00  0.00    +0.122 C 
ATOM     13  C   UNL     1      -6.758   1.302 -15.862  1.00  0.00    +0.028 C 
ENDBRANCH   1  12
BRANCH   4  14
ATOM     14  C   UNL     1     -11.616   2.064 -12.965  1.00  0.00    +0.004 A 
ATOM     15  C   UNL     1     -11.042   1.108 -12.104  1.00  0.00    +0.039 A 
ATOM     16  C   UNL     1     -12.916   2.529 -12.706  1.00  0.00    +0.029 A 
ATOM     17  C   UNL     1     -11.751   0.622 -11.003  1.00  0.00    +0.079 A 
ATOM     18  C   UNL     1     -13.638   2.037 -11.618  1.00  0.00    +0.057 A 
ATOM     19  C   UNL     1     -13.053   1.089 -10.787  1.00  0.00    +0.147 A 
ATOM     20 Br   UNL     1     -13.754   3.852 -13.785  1.00  0.00    -0.050 Br
ATOM     21  F   UNL     1     -13.754   0.622  -9.741  1.00  0.00    -0.205 F 
BRANCH  17  22
ATOM     22  N   UNL     1     -11.252  -0.337 -10.096  1.00  0.00    -0.305 N 
ATOM     23  C   UNL     1     -11.118  -1.701 -10.305  1.00  0.00    +0.323 C 
ATOM     24  O   UNL     1     -11.327  -2.260 -11.374  1.00  0.00    -0.248 OA
ATOM     25  N   UNL     1     -10.712  -2.325  -9.136  1.00  0.00    -0.308 N 
ATOM     26  H   UNL     1     -10.778   0.046  -9.288  1.00  0.00    +0.171 HD
ATOM     27  H   UNL     1     -10.800  -1.780  -8.293  1.00  0.00    +0.171 HD
BRANCH  25  28
ATOM     28  C   UNL     1     -10.371  -3.683  -8.958  1.00  0.00    +0.042 A 
ATOM     29  C   UNL     1     -11.261  -4.742  -9.145  1.00  0.00    +0.026 A 
ATOM     30  C   UNL     1      -9.049  -3.967  -8.592  1.00  0.00    +0.026 A 
ATOM     31  C   UNL     1     -10.840  -6.063  -8.958  1.00  0.00    +0.002 A 
ATOM     32  C   UNL     1      -8.628  -5.287  -8.405  1.00  0.00    +0.002 A 
ATOM     33  C   UNL     1      -9.526  -6.335  -8.587  1.00  0.00    +0.000 A 
ENDBRANCH  25  28
ENDBRANCH  17  22
ENDBRANCH   4  14
BRANCH   9  34
ATOM     34  N   UNL     1      -8.250   5.792 -19.013  1.00  0.00    -0.373 N 
ATOM     35  C   UNL     1      -9.040   6.790 -19.715  1.00  0.00    +0.141 C 
ATOM     36  H   UNL     1      -8.065   4.986 -19.611  1.00  0.00    +0.161 HD
ENDBRANCH   9  34
TORSDOF 5
ENDMDL
MODEL 5
REMARK VINA RESULT:    -8.309      5.938      8.627
REMARK INTER + INTRA:         -11.775
REMARK INTER:                 -11.396
REMARK INTRA:                  -0.379
REMARK UNBOUND:                -1.037
REMARK SMILES CCn1c(=O)c(-c2cc(NC(=O)Nc3ccccc3)c(F)cc2Br)cc2cnc(NC)cc21
REMARK SMILES IDX 3 1 4 2 5 3 6 4 25 5 26 6 27 7 28 8 29 9 32 10 33 11 2 12
REMARK SMILES IDX 1 13 7 14 8 15 23 16 9 17 22 18 20 19 24 20 21 21 10 22
REMARK SMILES IDX 11 23 12 24 13 25 14 28 15 29 19 30 16 31 18 32 17 33 30 34
REMARK SMILES IDX 31 35
REMARK H PARENT 10 26 13 27 30 36
ROOT
ATOM      1  N   UNL     1      -4.302  -0.179 -16.387  1.00  0.00    -0.308 N 
ATOM      2  C   UNL     1      -5.321   0.724 -16.073  1.00  0.00    +0.258 C 
ATOM      3  O   UNL     1      -5.191   1.945 -16.163  1.00  0.00    -0.269 OA
ATOM      4  C   UNL     1      -6.632   0.154 -15.617  1.00  0.00    +0.049 C 
ATOM      5  C   UNL     1      -6.804  -1.170 -15.505  1.00  0.00    +0.026 C 
ATOM      6  C   UNL     1      -5.709  -2.080 -15.808  1.00  0.00    +0.018 A 
ATOM      7  C   UNL     1      -5.856  -3.455 -15.668  1.00  0.00    +0.123 A 
ATOM      8  N   UNL     1      -4.880  -4.354 -15.922  1.00  0.00    -0.239 NA
ATOM      9  C   UNL     1      -3.696  -3.877 -16.337  1.00  0.00    +0.127 A 
ATOM     10  C   UNL     1      -3.452  -2.515 -16.493  1.00  0.00    +0.073 A 
ATOM     11  C   UNL     1      -4.473  -1.592 -16.235  1.00  0.00    +0.056 A 
ENDROOT
BRANCH   1  12
ATOM     12  C   UNL     1      -3.022   0.383 -16.816  1.00  0.00    +0.122 C 
ATOM     13  C   UNL     1      -2.933   0.514 -18.330  1.00  0.00    +0.028 C 
ENDBRANCH   1  12
BRANCH   4  14
ATOM     14  C   UNL     1      -7.751   1.055 -15.276  1.00  0.00    +0.004 A 
ATOM     15  C   UNL     1      -8.238   1.918 -16.278  1.00  0.00    +0.039 A 
ATOM     16  C   UNL     1      -8.335   1.087 -13.998  1.00  0.00    +0.029 A 
ATOM     17  C   UNL     1      -9.288   2.799 -16.013  1.00  0.00    +0.079 A 
ATOM     18  C   UNL     1      -9.374   1.975 -13.720  1.00  0.00    +0.057 A 
ATOM     19  C   UNL     1      -9.832   2.821 -14.723  1.00  0.00    +0.147 A 
ATOM     20 Br   UNL     1      -7.776  -0.072 -12.598  1.00  0.00    -0.050 Br
ATOM     21  F   UNL     1     -10.835   3.671 -14.447  1.00  0.00    -0.205 F 
BRANCH  17  22
ATOM     22  N   UNL     1      -9.831   3.697 -16.956  1.00  0.00    -0.305 N 
ATOM     23  C   UNL     1      -9.280   4.892 -17.392  1.00  0.00    +0.323 C 
ATOM     24  O   UNL     1      -8.165   5.292 -17.083  1.00  0.00    -0.248 OA
ATOM     25  N   UNL     1     -10.170   5.551 -18.225  1.00  0.00    -0.308 N 
ATOM     26  H   UNL     1     -10.606   3.332 -17.495  1.00  0.00    +0.171 HD
ATOM     27  H   UNL     1     -11.121   5.217 -18.206  1.00  0.00    +0.171 HD
BRANCH  25  28
ATOM     28  C   UNL     1      -9.951   6.743 -18.948  1.00  0.00    +0.042 A 
ATOM     29  C   UNL     1      -9.483   7.928 -18.377  1.00  0.00    +0.026 A 
ATOM     30  C   UNL     1     -10.204   6.711 -20.326  1.00  0.00    +0.026 A 
ATOM     31  C   UNL     1      -9.282   9.065 -19.167  1.00  0.00    +0.002 A 
ATOM     32  C   UNL     1     -10.004   7.847 -21.115  1.00  0.00    +0.002 A 
ATOM     33  C   UNL     1      -9.544   9.025 -20.534  1.00  0.00    +0.000 A 
ENDBRANCH  25  28
ENDBRANCH  17  22
ENDBRANCH   4  14
BRANCH   9  34
ATOM     34  N   UNL     1      -2.711  -4.839 -16.567  1.00  0.00    -0.373 N 
ATOM     35  C   UNL     1      -3.169  -5.983 -17.337  1.00  0.00    +0.141 C 
ATOM     36  H   UNL     1      -2.424  -5.122 -15.628  1.00  0.00    +0.161 HD
ENDBRANCH   9  34
TORSDOF 5
ENDMDL
MODEL 6
REMARK VINA RESULT:    -7.996      5.830      9.004
REMARK INTER + INTRA:         -11.371
REMARK INTER:                 -11.068
REMARK INTRA:                  -0.302
REMARK UNBOUND:                -1.037
REMARK SMILES CCn1c(=O)c(-c2cc(NC(=O)Nc3ccccc3)c(F)cc2Br)cc2cnc(NC)cc21
REMARK SMILES IDX 3 1 4 2 5 3 6 4 25 5 26 6 27 7 28 8 29 9 32 10 33 11 2 12
REMARK SMILES IDX 1 13 7 14 8 15 23 16 9 17 22 18 20 19 24 20 21 21 10 22
REMARK SMILES IDX 11 23 12 24 13 25 14 28 15 29 19 30 16 31 18 32 17 33 30 34
REMARK SMILES IDX 31 35
REMARK H PARENT 10 26 13 27 30 36
ROOT
ATOM      1  N   UNL     1      -5.260  -1.535 -16.308  1.00  0.00    -0.308 N 
ATOM      2  C   UNL     1      -6.356  -0.840 -15.789  1.00  0.00    +0.258 C 
ATOM      3  O   UNL     1      -7.406  -1.390 -15.454  1.00  0.00    -0.269 OA
ATOM      4  C   UNL     1      -6.219   0.645 -15.631  1.00  0.00    +0.049 C 
ATOM      5  C   UNL     1      -5.091   1.273 -15.990  1.00  0.00    +0.026 C 
ATOM      6  C   UNL     1      -3.982   0.522 -16.558  1.00  0.00    +0.018 A 
ATOM      7  C   UNL     1      -2.815   1.157 -16.966  1.00  0.00    +0.123 A 
ATOM      8  N   UNL     1      -1.753   0.523 -17.510  1.00  0.00    -0.239 NA
ATOM      9  C   UNL     1      -1.842  -0.808 -17.661  1.00  0.00    +0.127 A 
ATOM     10  C   UNL     1      -2.976  -1.527 -17.294  1.00  0.00    +0.073 A 
ATOM     11  C   UNL     1      -4.067  -0.861 -16.723  1.00  0.00    +0.056 A 
ENDROOT
BRANCH   1  12
ATOM     12  C   UNL     1      -5.405  -2.981 -16.474  1.00  0.00    +0.122 C 
ATOM     13  C   UNL     1      -5.035  -3.743 -15.209  1.00  0.00    +0.028 C 
ENDBRANCH   1  12
BRANCH   4  14
ATOM     14  C   UNL     1      -7.338   1.436 -15.082  1.00  0.00    +0.004 A 
ATOM     15  C   UNL     1      -7.959   2.381 -15.923  1.00  0.00    +0.039 A 
ATOM     16  C   UNL     1      -7.797   1.285 -13.763  1.00  0.00    +0.029 A 
ATOM     17  C   UNL     1      -9.017   3.165 -15.458  1.00  0.00    +0.079 A 
ATOM     18  C   UNL     1      -8.842   2.075 -13.285  1.00  0.00    +0.057 A 
ATOM     19  C   UNL     1      -9.433   3.006 -14.131  1.00  0.00    +0.147 A 
ATOM     20 Br   UNL     1      -7.054   0.003 -12.570  1.00  0.00    -0.050 Br
ATOM     21  F   UNL     1     -10.441   3.760 -13.663  1.00  0.00    -0.205 F 
BRANCH  17  22
ATOM     22  N   UNL     1      -9.688   4.136 -16.232  1.00  0.00    -0.305 N 
ATOM     23  C   UNL     1      -9.127   5.024 -17.137  1.00  0.00    +0.323 C 
ATOM     24  O   UNL     1      -7.950   5.018 -17.471  1.00  0.00    -0.248 OA
ATOM     25  N   UNL     1     -10.092   5.903 -17.602  1.00  0.00    -0.308 N 
ATOM     26  H   UNL     1     -10.696   4.038 -16.257  1.00  0.00    +0.171 HD
ATOM     27  H   UNL     1     -10.951   5.933 -17.074  1.00  0.00    +0.171 HD
BRANCH  25  28
ATOM     28  C   UNL     1      -9.949   6.889 -18.600  1.00  0.00    +0.042 A 
ATOM     29  C   UNL     1      -9.482   8.182 -18.359  1.00  0.00    +0.026 A 
ATOM     30  C   UNL     1     -10.279   6.524 -19.912  1.00  0.00    +0.026 A 
ATOM     31  C   UNL     1      -9.359   9.099 -19.410  1.00  0.00    +0.002 A 
ATOM     32  C   UNL     1     -10.156   7.439 -20.961  1.00  0.00    +0.002 A 
ATOM     33  C   UNL     1      -9.697   8.728 -20.708  1.00  0.00    +0.000 A 
ENDBRANCH  25  28
ENDBRANCH  17  22
ENDBRANCH   4  14
BRANCH   9  34
ATOM     34  N   UNL     1      -0.731  -1.419 -18.246  1.00  0.00    -0.373 N 
ATOM     35  C   UNL     1      -0.719  -1.359 -19.698  1.00  0.00    +0.141 C 
ATOM     36  H   UNL     1      -0.787  -2.385 -17.920  1.00  0.00    +0.161 HD
ENDBRANCH   9  34
TORSDOF 5
ENDMDL
MODEL 7
REMARK VINA RESULT:    -7.820      3.869     10.051
REMARK INTER + INTRA:         -11.143
REMARK INTER:                 -11.334
REMARK INTRA:                   0.191
REMARK UNBOUND:                -1.037
REMARK SMILES CCn1c(=O)c(-c2cc(NC(=O)Nc3ccccc3)c(F)cc2Br)cc2cnc(NC)cc21
REMARK SMILES IDX 3 1 4 2 5 3 6 4 25 5 26 6 27 7 28 8 29 9 32 10 33 11 2 12
REMARK SMILES IDX 1 13 7 14 8 15 23 16 9 17 22 18 20 19 24 20 21 21 10 22
REMARK SMILES IDX 11 23 12 24 13 25 14 28 15 29 19 30 16 31 18 32 17 33 30 34
REMARK SMILES IDX 31 35
REMARK H PARENT 10 26 13 27 30 36
ROOT
ATOM      1  N   UNL     1      -9.299   1.241 -15.400  1.00  0.00    -0.308 N 
ATOM      2  C   UNL     1     -10.116   0.859 -14.333  1.00  0.00    +0.258 C 
ATOM      3  O   UNL     1     -10.180  -0.297 -13.913  1.00  0.00    -0.269 OA
ATOM      4  C   UNL     1     -10.939   1.927 -13.675  1.00  0.00    +0.049 C 
ATOM      5  C   UNL     1     -10.895   3.194 -14.111  1.00  0.00    +0.026 C 
ATOM      6  C   UNL     1     -10.057   3.550 -15.247  1.00  0.00    +0.018 A 
ATOM      7  C   UNL     1     -10.021   4.851 -15.735  1.00  0.00    +0.123 A 
ATOM      8  N   UNL     1      -9.276   5.248 -16.789  1.00  0.00    -0.239 NA
ATOM      9  C   UNL     1      -8.525   4.316 -17.397  1.00  0.00    +0.127 A 
ATOM     10  C   UNL     1      -8.507   2.986 -16.987  1.00  0.00    +0.073 A 
ATOM     11  C   UNL     1      -9.277   2.587 -15.888  1.00  0.00    +0.056 A 
ENDROOT
BRANCH   1  12
ATOM     12  C   UNL     1      -8.511   0.192 -16.046  1.00  0.00    +0.122 C 
ATOM     13  C   UNL     1      -7.146   0.020 -15.398  1.00  0.00    +0.028 C 
ENDBRANCH   1  12
BRANCH   4  14
ATOM     14  C   UNL     1     -11.818   1.588 -12.538  1.00  0.00    +0.004 A 
ATOM     15  C   UNL     1     -11.352   0.652 -11.594  1.00  0.00    +0.039 A 
ATOM     16  C   UNL     1     -13.092   2.156 -12.372  1.00  0.00    +0.029 A 
ATOM     17  C   UNL     1     -12.142   0.286 -10.502  1.00  0.00    +0.079 A 
ATOM     18  C   UNL     1     -13.894   1.784 -11.293  1.00  0.00    +0.057 A 
ATOM     19  C   UNL     1     -13.415   0.853 -10.379  1.00  0.00    +0.147 A 
ATOM     20 Br   UNL     1     -13.786   3.462 -13.568  1.00  0.00    -0.050 Br
ATOM     21  F   UNL     1     -14.194   0.501  -9.342  1.00  0.00    -0.205 F 
BRANCH  17  22
ATOM     22  N   UNL     1     -11.753  -0.646  -9.516  1.00  0.00    -0.305 N 
ATOM     23  C   UNL     1     -11.188  -0.373  -8.279  1.00  0.00    +0.323 C 
ATOM     24  O   UNL     1     -11.039   0.752  -7.821  1.00  0.00    -0.248 OA
ATOM     25  N   UNL     1     -10.829  -1.553  -7.649  1.00  0.00    -0.308 N 
ATOM     26  H   UNL     1     -12.095  -1.588  -9.660  1.00  0.00    +0.171 HD
ATOM     27  H   UNL     1     -10.803  -2.375  -8.233  1.00  0.00    +0.171 HD
BRANCH  25  28
ATOM     28  C   UNL     1     -10.317  -1.711  -6.343  1.00  0.00    +0.042 A 
ATOM     29  C   UNL     1      -8.956  -1.777  -6.042  1.00  0.00    +0.026 A 
ATOM     30  C   UNL     1     -11.245  -1.784  -5.296  1.00  0.00    +0.026 A 
ATOM     31  C   UNL     1      -8.529  -1.923  -4.717  1.00  0.00    +0.002 A 
ATOM     32  C   UNL     1     -10.819  -1.931  -3.974  1.00  0.00    +0.002 A 
ATOM     33  C   UNL     1      -9.460  -2.002  -3.685  1.00  0.00    +0.000 A 
ENDBRANCH  25  28
ENDBRANCH  17  22
ENDBRANCH   4  14
BRANCH   9  34
ATOM     34  N   UNL     1      -7.787   4.765 -18.495  1.00  0.00    -0.373 N 
ATOM     35  C   UNL     1      -8.370   5.912 -19.170  1.00  0.00    +0.141 C 
ATOM     36  H   UNL     1      -7.756   3.953 -19.114  1.00  0.00    +0.161 HD
ENDBRANCH   9  34
TORSDOF 5
ENDMDL
MODEL 8
REMARK VINA RESULT:    -7.814      2.538     10.267
REMARK INTER + INTRA:         -11.136
REMARK INTER:                 -12.375
REMARK INTRA:                   1.239
REMARK UNBOUND:                -1.037
REMARK SMILES CCn1c(=O)c(-c2cc(NC(=O)Nc3ccccc3)c(F)cc2Br)cc2cnc(NC)cc21
REMARK SMILES IDX 3 1 4 2 5 3 6 4 25 5 26 6 27 7 28 8 29 9 32 10 33 11 2 12
REMARK SMILES IDX 1 13 7 14 8 15 23 16 9 17 22 18 20 19 24 20 21 21 10 22
REMARK SMILES IDX 11 23 12 24 13 25 14 28 15 29 19 30 16 31 18 32 17 33 30 34
REMARK SMILES IDX 31 35
REMARK H PARENT 10 26 13 27 30 36
ROOT
ATOM      1  N   UNL     1     -10.514   5.188 -16.265  1.00  0.00    -0.308 N 
ATOM      2  C   UNL     1     -10.193   4.069 -15.492  1.00  0.00    +0.258 C 
ATOM      3  O   UNL     1     -10.835   3.731 -14.497  1.00  0.00    -0.269 OA
ATOM      4  C   UNL     1      -9.011   3.250 -15.919  1.00  0.00    +0.049 C 
ATOM      5  C   UNL     1      -8.289   3.595 -16.995  1.00  0.00    +0.026 C 
ATOM      6  C   UNL     1      -8.633   4.785 -17.758  1.00  0.00    +0.018 A 
ATOM      7  C   UNL     1      -7.879   5.178 -18.858  1.00  0.00    +0.123 A 
ATOM      8  N   UNL     1      -8.136   6.275 -19.603  1.00  0.00    -0.239 NA
ATOM      9  C   UNL     1      -9.190   7.028 -19.249  1.00  0.00    +0.127 A 
ATOM     10  C   UNL     1      -9.993   6.720 -18.155  1.00  0.00    +0.073 A 
ATOM     11  C   UNL     1      -9.724   5.576 -17.395  1.00  0.00    +0.056 A 
ENDROOT
BRANCH   1  12
ATOM     12  C   UNL     1     -11.658   5.990 -15.834  1.00  0.00    +0.122 C 
ATOM     13  C   UNL     1     -12.923   5.646 -16.606  1.00  0.00    +0.028 C 
ENDBRANCH   1  12
BRANCH   4  14
ATOM     14  C   UNL     1      -8.623   2.053 -15.148  1.00  0.00    +0.004 A 
ATOM     15  C   UNL     1      -9.402   1.704 -14.026  1.00  0.00    +0.039 A 
ATOM     16  C   UNL     1      -7.512   1.262 -15.485  1.00  0.00    +0.029 A 
ATOM     17  C   UNL     1      -9.080   0.587 -13.253  1.00  0.00    +0.079 A 
ATOM     18  C   UNL     1      -7.173   0.154 -14.709  1.00  0.00    +0.057 A 
ATOM     19  C   UNL     1      -7.953  -0.166 -13.603  1.00  0.00    +0.147 A 
ATOM     20 Br   UNL     1      -6.431   1.626 -17.007  1.00  0.00    -0.050 Br
ATOM     21  F   UNL     1      -7.620  -1.236 -12.862  1.00  0.00    -0.205 F 
BRANCH  17  22
ATOM     22  N   UNL     1      -9.803   0.173 -12.114  1.00  0.00    -0.305 N 
ATOM     23  C   UNL     1     -10.624  -0.939 -11.999  1.00  0.00    +0.323 C 
ATOM     24  O   UNL     1     -10.758  -1.791 -12.867  1.00  0.00    -0.248 OA
ATOM     25  N   UNL     1     -11.258  -0.938 -10.767  1.00  0.00    -0.308 N 
ATOM     26  H   UNL     1      -9.542   0.634 -11.252  1.00  0.00    +0.171 HD
ATOM     27  H   UNL     1     -11.228  -0.068 -10.257  1.00  0.00    +0.171 HD
BRANCH  25  28
ATOM     28  C   UNL     1     -12.093  -1.939 -10.227  1.00  0.00    +0.042 A 
ATOM     29  C   UNL     1     -13.449  -1.757  -9.949  1.00  0.00    +0.026 A 
ATOM     30  C   UNL     1     -11.515  -3.191  -9.983  1.00  0.00    +0.026 A 
ATOM     31  C   UNL     1     -14.212  -2.806  -9.424  1.00  0.00    +0.002 A 
ATOM     32  C   UNL     1     -12.277  -4.239  -9.458  1.00  0.00    +0.002 A 
ATOM     33  C   UNL     1     -13.626  -4.045  -9.177  1.00  0.00    +0.000 A 
ENDBRANCH  25  28
ENDBRANCH  17  22
ENDBRANCH   4  14
BRANCH   9  34
ATOM     34  N   UNL     1      -9.405   8.163 -20.033  1.00  0.00    -0.373 N 
ATOM     35  C   UNL     1     -10.030   7.886 -21.316  1.00  0.00    +0.141 C 
ATOM     36  H   UNL     1      -8.469   8.551 -20.159  1.00  0.00    +0.161 HD
ENDBRANCH   9  34
TORSDOF 5
ENDMDL
MODEL 9
REMARK VINA RESULT:    -7.796      1.834      2.698
REMARK INTER + INTRA:         -11.112
REMARK INTER:                  -9.957
REMARK INTRA:                  -1.156
REMARK UNBOUND:                -1.037
REMARK SMILES CCn1c(=O)c(-c2cc(NC(=O)Nc3ccccc3)c(F)cc2Br)cc2cnc(NC)cc21
REMARK SMILES IDX 3 1 4 2 5 3 6 4 25 5 26 6 27 7 28 8 29 9 32 10 33 11 2 12
REMARK SMILES IDX 1 13 7 14 8 15 23 16 9 17 22 18 20 19 24 20 21 21 10 22
REMARK SMILES IDX 11 23 12 24 13 25 14 28 15 29 19 30 16 31 18 32 17 33 30 34
REMARK SMILES IDX 31 35
REMARK H PARENT 10 26 13 27 30 36
ROOT
ATOM      1  N   UNL     1     -13.101  -0.156  -7.638  1.00  0.00    -0.308 N 
ATOM      2  C   UNL     1     -12.064  -0.025  -8.565  1.00  0.00    +0.258 C 
ATOM      3  O   UNL     1     -11.105   0.729  -8.402  1.00  0.00    -0.269 OA
ATOM      4  C   UNL     1     -12.140  -0.862  -9.808  1.00  0.00    +0.049 C 
ATOM      5  C   UNL     1     -13.173  -1.690 -10.017  1.00  0.00    +0.026 C 
ATOM      6  C   UNL     1     -14.253  -1.776  -9.044  1.00  0.00    +0.018 A 
ATOM      7  C   UNL     1     -15.349  -2.603  -9.256  1.00  0.00    +0.123 A 
ATOM      8  N   UNL     1     -16.388  -2.723  -8.402  1.00  0.00    -0.239 NA
ATOM      9  C   UNL     1     -16.349  -1.990  -7.277  1.00  0.00    +0.127 A 
ATOM     10  C   UNL     1     -15.299  -1.124  -6.987  1.00  0.00    +0.073 A 
ATOM     11  C   UNL     1     -14.222  -1.014  -7.875  1.00  0.00    +0.056 A 
ENDROOT
BRANCH   1  12
ATOM     12  C   UNL     1     -13.029   0.674  -6.435  1.00  0.00    +0.122 C 
ATOM     13  C   UNL     1     -12.293  -0.024  -5.301  1.00  0.00    +0.028 C 
ENDBRANCH   1  12
BRANCH   4  14
ATOM     14  C   UNL     1     -11.073  -0.775 -10.824  1.00  0.00    +0.004 A 
ATOM     15  C   UNL     1     -11.274   0.079 -11.927  1.00  0.00    +0.039 A 
ATOM     16  C   UNL     1      -9.879  -1.511 -10.734  1.00  0.00    +0.029 A 
ATOM     17  C   UNL     1     -10.304   0.197 -12.925  1.00  0.00    +0.079 A 
ATOM     18  C   UNL     1      -8.912  -1.412 -11.734  1.00  0.00    +0.057 A 
ATOM     19  C   UNL     1      -9.137  -0.568 -12.815  1.00  0.00    +0.147 A 
ATOM     20 Br   UNL     1      -9.499  -2.651  -9.260  1.00  0.00    -0.050 Br
ATOM     21  F   UNL     1      -8.199  -0.477 -13.773  1.00  0.00    -0.205 F 
BRANCH  17  22
ATOM     22  N   UNL     1     -10.428   1.023 -14.062  1.00  0.00    -0.305 N 
ATOM     23  C   UNL     1      -9.945   2.314 -14.219  1.00  0.00    +0.323 C 
ATOM     24  O   UNL     1      -9.237   2.890 -13.404  1.00  0.00    -0.248 OA
ATOM     25  N   UNL     1     -10.377   2.840 -15.426  1.00  0.00    -0.308 N 
ATOM     26  H   UNL     1     -10.739   0.550 -14.901  1.00  0.00    +0.171 HD
ATOM     27  H   UNL     1     -11.129   2.344 -15.879  1.00  0.00    +0.171 HD
BRANCH  25  28
ATOM     28  C   UNL     1     -10.026   4.081 -15.999  1.00  0.00    +0.042 A 
ATOM     29  C   UNL     1     -10.785   5.244 -15.868  1.00  0.00    +0.026 A 
ATOM     30  C   UNL     1      -8.827   4.134 -16.723  1.00  0.00    +0.026 A 
ATOM     31  C   UNL     1     -10.360   6.439 -16.460  1.00  0.00    +0.002 A 
ATOM     32  C   UNL     1      -8.403   5.327 -17.314  1.00  0.00    +0.002 A 
ATOM     33  C   UNL     1      -9.171   6.480 -17.183  1.00  0.00    +0.000 A 
ENDBRANCH  25  28
ENDBRANCH  17  22
ENDBRANCH   4  14
BRANCH   9  34
ATOM     34  N   UNL     1     -17.452  -2.129  -6.434  1.00  0.00    -0.373 N 
ATOM     35  C   UNL     1     -17.832  -0.905  -5.748  1.00  0.00    +0.141 C 
ATOM     36  H   UNL     1     -17.159  -2.845  -5.767  1.00  0.00    +0.161 HD
ENDBRANCH   9  34
TORSDOF 5
ENDMDL
MODEL 10
REMARK VINA RESULT:    -7.689      5.561      8.960
REMARK INTER + INTRA:         -10.974
REMARK INTER:                  -9.943
REMARK INTRA:                  -1.030
REMARK UNBOUND:                -1.037
REMARK SMILES CCn1c(=O)c(-c2cc(NC(=O)Nc3ccccc3)c(F)cc2Br)cc2cnc(NC)cc21
REMARK SMILES IDX 3 1 4 2 5 3 6 4 25 5 26 6 27 7 28 8 29 9 32 10 33 11 2 12
REMARK SMILES IDX 1 13 7 14 8 15 23 16 9 17 22 18 20 19 24 20 21 21 10 22
REMARK SMILES IDX 11 23 12 24 13 25 14 28 15 29 19 30 16 31 18 32 17 33 30 34
REMARK SMILES IDX 31 35
REMARK H PARENT 10 26 13 27 30 36
ROOT
ATOM      1  N   UNL     1      -3.172  -3.402 -15.900  1.00  0.00    -0.308 N 
ATOM      2  C   UNL     1      -3.945  -2.369 -15.363  1.00  0.00    +0.258 C 
ATOM      3  O   UNL     1      -3.502  -1.243 -15.137  1.00  0.00    -0.269 OA
ATOM      4  C   UNL     1      -5.385  -2.667 -15.065  1.00  0.00    +0.049 C 
ATOM      5  C   UNL     1      -5.896  -3.885 -15.296  1.00  0.00    +0.026 C 
ATOM      6  C   UNL     1      -5.053  -4.947 -15.824  1.00  0.00    +0.018 A 
ATOM      7  C   UNL     1      -5.554  -6.225 -16.041  1.00  0.00    +0.123 A 
ATOM      8  N   UNL     1      -4.826  -7.257 -16.519  1.00  0.00    -0.239 NA
ATOM      9  C   UNL     1      -3.534  -7.022 -16.800  1.00  0.00    +0.127 A 
ATOM     10  C   UNL     1      -2.942  -5.778 -16.602  1.00  0.00    +0.073 A 
ATOM     11  C   UNL     1      -3.708  -4.712 -16.115  1.00  0.00    +0.056 A 
ENDROOT
BRANCH   1  12
ATOM     12  C   UNL     1      -1.766  -3.109 -16.174  1.00  0.00    +0.122 C 
ATOM     13  C   UNL     1      -1.558  -2.556 -17.576  1.00  0.00    +0.028 C 
ENDBRANCH   1  12
BRANCH   4  14
ATOM     14  C   UNL     1      -6.256  -1.617 -14.503  1.00  0.00    +0.004 A 
ATOM     15  C   UNL     1      -6.904  -0.742 -15.397  1.00  0.00    +0.039 A 
ATOM     16  C   UNL     1      -6.454  -1.458 -13.121  1.00  0.00    +0.029 A 
ATOM     17  C   UNL     1      -7.733   0.277 -14.924  1.00  0.00    +0.079 A 
ATOM     18  C   UNL     1      -7.268  -0.433 -12.639  1.00  0.00    +0.057 A 
ATOM     19  C   UNL     1      -7.890   0.423 -13.541  1.00  0.00    +0.147 A 
ATOM     20 Br   UNL     1      -5.661  -2.619 -11.841  1.00  0.00    -0.050 Br
ATOM     21  F   UNL     1      -8.674   1.405 -13.068  1.00  0.00    -0.205 F 
BRANCH  17  22
ATOM     22  N   UNL     1      -8.414   1.197 -15.750  1.00  0.00    -0.305 N 
ATOM     23  C   UNL     1      -8.120   2.541 -15.930  1.00  0.00    +0.323 C 
ATOM     24  O   UNL     1      -7.141   3.103 -15.460  1.00  0.00    -0.248 OA
ATOM     25  N   UNL     1      -9.091   3.138 -16.718  1.00  0.00    -0.308 N 
ATOM     26  H   UNL     1      -9.060   0.782 -16.409  1.00  0.00    +0.171 HD
ATOM     27  H   UNL     1      -9.944   2.614 -16.839  1.00  0.00    +0.171 HD
BRANCH  25  28
ATOM     28  C   UNL     1      -9.107   4.461 -17.210  1.00  0.00    +0.042 A 
ATOM     29  C   UNL     1      -8.423   4.876 -18.353  1.00  0.00    +0.026 A 
ATOM     30  C   UNL     1      -9.878   5.396 -16.507  1.00  0.00    +0.026 A 
ATOM     31  C   UNL     1      -8.500   6.206 -18.781  1.00  0.00    +0.002 A 
ATOM     32  C   UNL     1      -9.954   6.724 -16.933  1.00  0.00    +0.002 A 
ATOM     33  C   UNL     1      -9.263   7.129 -18.071  1.00  0.00    +0.000 A 
ENDBRANCH  25  28
ENDBRANCH  17  22
ENDBRANCH   4  14
BRANCH   9  34
ATOM     34  N   UNL     1      -2.815  -8.121 -17.271  1.00  0.00    -0.373 N 
ATOM     35  C   UNL     1      -1.925  -7.816 -18.379  1.00  0.00    +0.141 C 
ATOM     36  H   UNL     1      -3.540  -8.781 -17.556  1.00  0.00    +0.161 HD
ENDBRANCH   9  34
TORSDOF 5
ENDMDL
