MODEL 1
REMARK VINA RESULT:   -10.112      0.000      0.000
REMARK INTER + INTRA:         -13.870
REMARK INTER:                 -13.659
REMARK INTRA:                  -0.211
REMARK UNBOUND:                -0.211
REMARK SMILES COc1cc2nccc(Oc3ccc(NC(=O)NC4CC4)c(Cl)c3)c2cc1C(N)=O
REMARK SMILES IDX 10 1 9 2 3 3 4 4 27 5 5 6 26 7 6 8 25 9 7 10 8 11 2 12 1 13
REMARK SMILES IDX 28 14 29 15 30 16 11 19 12 20 24 21 13 22 22 23 14 24 23 25
REMARK SMILES IDX 15 26 16 27 17 28 18 29 19 32 20 33 21 34
REMARK H PARENT 29 17 29 18 15 30 18 31
ROOT
ATOM      1  O   UNL     1     -39.308 160.542  -3.407  1.00  0.00    -0.457 OA
ENDROOT
BRANCH   1   2
ATOM      2  C   UNL     1     -39.074 161.896  -3.295  1.00  0.00    +0.138 A 
ATOM      3  C   UNL     1     -37.780 164.150  -6.633  1.00  0.00    +0.133 A 
ATOM      4  C   UNL     1     -37.953 164.717  -5.359  1.00  0.00    +0.076 A 
ATOM      5  C   UNL     1     -38.040 162.780  -6.807  1.00  0.00    +0.082 A 
ATOM      6  C   UNL     1     -38.375 163.977  -4.261  1.00  0.00    +0.078 A 
ATOM      7  C   UNL     1     -38.468 162.024  -5.702  1.00  0.00    +0.032 A 
ATOM      8  N   UNL     1     -38.511 164.600  -3.077  1.00  0.00    -0.256 NA
ATOM      9  C   UNL     1     -38.639 162.609  -4.430  1.00  0.00    +0.044 A 
ATOM     10  C   UNL     1     -38.908 163.875  -2.009  1.00  0.00    +0.115 A 
ATOM     11  C   UNL     1     -39.192 162.527  -2.062  1.00  0.00    +0.068 A 
BRANCH   3  12
ATOM     12  O   UNL     1     -37.365 164.873  -7.725  1.00  0.00    -0.496 OA
ATOM     13  C   UNL     1     -38.255 165.846  -8.262  1.00  0.00    +0.278 C 
ENDBRANCH   3  12
BRANCH   5  14
ATOM     14  C   UNL     1     -37.901 162.034  -8.098  1.00  0.00    +0.252 C 
ATOM     15  N   UNL     1     -38.565 162.499  -9.194  1.00  0.00    -0.365 N 
ATOM     16  O   UNL     1     -37.210 161.025  -8.185  1.00  0.00    -0.269 OA
ATOM     17  H   UNL     1     -38.476 161.993 -10.065  1.00  0.00    +0.159 HD
ATOM     18  H   UNL     1     -39.148 163.325  -9.150  1.00  0.00    +0.159 HD
ENDBRANCH   5  14
ENDBRANCH   1   2
BRANCH   1  19
ATOM     19  C   UNL     1     -39.199 159.784  -2.261  1.00  0.00    +0.129 A 
ATOM     20  C   UNL     1     -38.164 158.878  -2.031  1.00  0.00    +0.049 A 
ATOM     21  C   UNL     1     -40.156 160.013  -1.275  1.00  0.00    +0.069 A 
ATOM     22  C   UNL     1     -38.108 158.164  -0.828  1.00  0.00    +0.031 A 
ATOM     23  C   UNL     1     -40.094 159.302  -0.074  1.00  0.00    +0.068 A 
ATOM     24  C   UNL     1     -39.076 158.359   0.162  1.00  0.00    +0.061 A 
ATOM     25 Cl   UNL     1     -41.314 159.612   1.118  1.00  0.00    -0.082 Cl
BRANCH  24  26
ATOM     26  N   UNL     1     -39.064 157.673   1.399  1.00  0.00    -0.307 N 
ATOM     27  C   UNL     1     -38.106 157.729   2.388  1.00  0.00    +0.319 C 
ATOM     28  O   UNL     1     -37.038 158.325   2.331  1.00  0.00    -0.248 OA
ATOM     29  N   UNL     1     -38.496 156.983   3.491  1.00  0.00    -0.335 N 
ATOM     30  H   UNL     1     -39.762 156.948   1.494  1.00  0.00    +0.171 HD
ATOM     31  H   UNL     1     -39.490 156.857   3.609  1.00  0.00    +0.165 HD
BRANCH  29  32
ATOM     32  C   UNL     1     -37.688 156.920   4.671  1.00  0.00    +0.084 C 
ATOM     33  C   UNL     1     -37.760 155.728   5.585  1.00  0.00    +0.027 C 
ATOM     34  C   UNL     1     -36.532 155.961   4.755  1.00  0.00    +0.027 C 
ENDBRANCH  29  32
ENDBRANCH  24  26
ENDBRANCH   1  19
TORSDOF 6
ENDMDL
MODEL 2
REMARK VINA RESULT:    -9.327      1.355      1.587
REMARK INTER + INTRA:         -12.809
REMARK INTER:                 -12.663
REMARK INTRA:                  -0.146
REMARK UNBOUND:                -0.211
REMARK SMILES COc1cc2nccc(Oc3ccc(NC(=O)NC4CC4)c(Cl)c3)c2cc1C(N)=O
REMARK SMILES IDX 10 1 9 2 3 3 4 4 27 5 5 6 26 7 6 8 25 9 7 10 8 11 2 12 1 13
REMARK SMILES IDX 28 14 29 15 30 16 11 19 12 20 24 21 13 22 22 23 14 24 23 25
REMARK SMILES IDX 15 26 16 27 17 28 18 29 19 32 20 33 21 34
REMARK H PARENT 29 17 29 18 15 30 18 31
ROOT
ATOM      1  O   UNL     1     -38.984 161.326  -4.314  1.00  0.00    -0.457 OA
ENDROOT
BRANCH   1   2
ATOM      2  C   UNL     1     -38.856 162.691  -4.468  1.00  0.00    +0.138 A 
ATOM      3  C   UNL     1     -37.860 164.360  -8.226  1.00  0.00    +0.133 A 
ATOM      4  C   UNL     1     -38.036 165.143  -7.073  1.00  0.00    +0.076 A 
ATOM      5  C   UNL     1     -38.015 162.966  -8.129  1.00  0.00    +0.082 A 
ATOM      6  C   UNL     1     -38.360 164.596  -5.837  1.00  0.00    +0.078 A 
ATOM      7  C   UNL     1     -38.343 162.404  -6.883  1.00  0.00    +0.032 A 
ATOM      8  N   UNL     1     -38.507 165.421  -4.786  1.00  0.00    -0.256 NA
ATOM      9  C   UNL     1     -38.519 163.205  -5.736  1.00  0.00    +0.044 A 
ATOM     10  C   UNL     1     -38.808 164.884  -3.583  1.00  0.00    +0.115 A 
ATOM     11  C   UNL     1     -38.984 163.534  -3.370  1.00  0.00    +0.068 A 
BRANCH   3  12
ATOM     12  O   UNL     1     -37.541 164.890  -9.452  1.00  0.00    -0.496 OA
ATOM     13  C   UNL     1     -37.211 166.274  -9.518  1.00  0.00    +0.278 C 
ENDBRANCH   3  12
BRANCH   5  14
ATOM     14  C   UNL     1     -37.859 162.001  -9.263  1.00  0.00    +0.252 C 
ATOM     15  N   UNL     1     -38.634 162.166 -10.372  1.00  0.00    -0.365 N 
ATOM     16  O   UNL     1     -37.056 161.075  -9.213  1.00  0.00    -0.269 OA
ATOM     17  H   UNL     1     -38.534 161.513 -11.135  1.00  0.00    +0.159 HD
ATOM     18  H   UNL     1     -39.310 162.917 -10.438  1.00  0.00    +0.159 HD
ENDBRANCH   5  14
ENDBRANCH   1   2
BRANCH   1  19
ATOM     19  C   UNL     1     -38.940 160.828  -3.030  1.00  0.00    +0.129 A 
ATOM     20  C   UNL     1     -37.819 160.205  -2.482  1.00  0.00    +0.049 A 
ATOM     21  C   UNL     1     -40.073 161.037  -2.247  1.00  0.00    +0.069 A 
ATOM     22  C   UNL     1     -37.843 159.748  -1.159  1.00  0.00    +0.031 A 
ATOM     23  C   UNL     1     -40.092 160.583  -0.926  1.00  0.00    +0.068 A 
ATOM     24  C   UNL     1     -38.982 159.923  -0.366  1.00  0.00    +0.061 A 
ATOM     25 Cl   UNL     1     -41.528 160.855   0.007  1.00  0.00    -0.082 Cl
BRANCH  24  26
ATOM     26  N   UNL     1     -39.060 159.491   0.978  1.00  0.00    -0.307 N 
ATOM     27  C   UNL     1     -38.406 158.429   1.565  1.00  0.00    +0.319 C 
ATOM     28  O   UNL     1     -37.699 157.607   0.995  1.00  0.00    -0.248 OA
ATOM     29  N   UNL     1     -38.671 158.380   2.926  1.00  0.00    -0.335 N 
ATOM     30  H   UNL     1     -39.795 159.919   1.525  1.00  0.00    +0.171 HD
ATOM     31  H   UNL     1     -38.923 159.257   3.357  1.00  0.00    +0.165 HD
BRANCH  29  32
ATOM     32  C   UNL     1     -38.070 157.390   3.768  1.00  0.00    +0.084 C 
ATOM     33  C   UNL     1     -36.577 157.324   3.924  1.00  0.00    +0.027 C 
ATOM     34  C   UNL     1     -37.428 157.784   5.070  1.00  0.00    +0.027 C 
ENDBRANCH  29  32
ENDBRANCH  24  26
ENDBRANCH   1  19
TORSDOF 6
ENDMDL
MODEL 3
REMARK VINA RESULT:    -9.060      3.203     11.338
REMARK INTER + INTRA:         -12.448
REMARK INTER:                 -11.585
REMARK INTRA:                  -0.863
REMARK UNBOUND:                -0.211
REMARK SMILES COc1cc2nccc(Oc3ccc(NC(=O)NC4CC4)c(Cl)c3)c2cc1C(N)=O
REMARK SMILES IDX 10 1 9 2 3 3 4 4 27 5 5 6 26 7 6 8 25 9 7 10 8 11 2 12 1 13
REMARK SMILES IDX 28 14 29 15 30 16 11 19 12 20 24 21 13 22 22 23 14 24 23 25
REMARK SMILES IDX 15 26 16 27 17 28 18 29 19 32 20 33 21 34
REMARK H PARENT 29 17 29 18 15 30 18 31
ROOT
ATOM      1  O   UNL     1     -38.687 157.302   3.948  1.00  0.00    -0.457 OA
ENDROOT
BRANCH   1   2
ATOM      2  C   UNL     1     -37.413 157.174   4.460  1.00  0.00    +0.138 A 
ATOM      3  C   UNL     1     -35.921 153.392   5.630  1.00  0.00    +0.133 A 
ATOM      4  C   UNL     1     -35.178 154.577   5.775  1.00  0.00    +0.076 A 
ATOM      5  C   UNL     1     -37.213 153.465   5.080  1.00  0.00    +0.082 A 
ATOM      6  C   UNL     1     -35.668 155.820   5.394  1.00  0.00    +0.078 A 
ATOM      7  C   UNL     1     -37.716 154.718   4.691  1.00  0.00    +0.032 A 
ATOM      8  N   UNL     1     -34.890 156.901   5.572  1.00  0.00    -0.256 NA
ATOM      9  C   UNL     1     -36.957 155.897   4.841  1.00  0.00    +0.044 A 
ATOM     10  C   UNL     1     -35.376 158.110   5.213  1.00  0.00    +0.115 A 
ATOM     11  C   UNL     1     -36.625 158.301   4.664  1.00  0.00    +0.068 A 
BRANCH   3  12
ATOM     12  O   UNL     1     -35.446 152.159   6.001  1.00  0.00    -0.496 OA
ATOM     13  C   UNL     1     -35.349 151.869   7.393  1.00  0.00    +0.278 C 
ENDBRANCH   3  12
BRANCH   5  14
ATOM     14  C   UNL     1     -38.124 152.296   4.864  1.00  0.00    +0.252 C 
ATOM     15  N   UNL     1     -38.457 151.956   3.587  1.00  0.00    -0.365 N 
ATOM     16  O   UNL     1     -38.571 151.648   5.804  1.00  0.00    -0.269 OA
ATOM     17  H   UNL     1     -39.076 151.171   3.440  1.00  0.00    +0.159 HD
ATOM     18  H   UNL     1     -38.108 152.477   2.792  1.00  0.00    +0.159 HD
ENDBRANCH   5  14
ENDBRANCH   1   2
BRANCH   1  19
ATOM     19  C   UNL     1     -38.820 157.926   2.727  1.00  0.00    +0.129 A 
ATOM     20  C   UNL     1     -37.826 157.925   1.748  1.00  0.00    +0.049 A 
ATOM     21  C   UNL     1     -40.052 158.523   2.468  1.00  0.00    +0.069 A 
ATOM     22  C   UNL     1     -38.048 158.559   0.519  1.00  0.00    +0.031 A 
ATOM     23  C   UNL     1     -40.270 159.152   1.240  1.00  0.00    +0.068 A 
ATOM     24  C   UNL     1     -39.267 159.188   0.253  1.00  0.00    +0.061 A 
ATOM     25 Cl   UNL     1     -41.814 159.890   0.967  1.00  0.00    -0.082 Cl
BRANCH  24  26
ATOM     26  N   UNL     1     -39.549 159.836  -0.972  1.00  0.00    -0.307 N 
ATOM     27  C   UNL     1     -39.317 161.153  -1.307  1.00  0.00    +0.319 C 
ATOM     28  O   UNL     1     -38.898 162.029  -0.559  1.00  0.00    -0.248 OA
ATOM     29  N   UNL     1     -39.647 161.389  -2.633  1.00  0.00    -0.335 N 
ATOM     30  H   UNL     1     -40.124 159.308  -1.615  1.00  0.00    +0.171 HD
ATOM     31  H   UNL     1     -39.612 160.587  -3.245  1.00  0.00    +0.165 HD
BRANCH  29  32
ATOM     32  C   UNL     1     -39.452 162.674  -3.233  1.00  0.00    +0.084 C 
ATOM     33  C   UNL     1     -38.113 163.061  -3.796  1.00  0.00    +0.027 C 
ATOM     34  C   UNL     1     -39.265 162.802  -4.720  1.00  0.00    +0.027 C 
ENDBRANCH  29  32
ENDBRANCH  24  26
ENDBRANCH   1  19
TORSDOF 6
ENDMDL
MODEL 4
REMARK VINA RESULT:    -8.674      5.662     13.519
REMARK INTER + INTRA:         -11.927
REMARK INTER:                 -10.931
REMARK INTRA:                  -0.996
REMARK UNBOUND:                -0.211
REMARK SMILES COc1cc2nccc(Oc3ccc(NC(=O)NC4CC4)c(Cl)c3)c2cc1C(N)=O
REMARK SMILES IDX 10 1 9 2 3 3 4 4 27 5 5 6 26 7 6 8 25 9 7 10 8 11 2 12 1 13
REMARK SMILES IDX 28 14 29 15 30 16 11 19 12 20 24 21 13 22 22 23 14 24 23 25
REMARK SMILES IDX 15 26 16 27 17 28 18 29 19 32 20 33 21 34
REMARK H PARENT 29 17 29 18 15 30 18 31
ROOT
ATOM      1  O   UNL     1     -37.081 154.010   6.796  1.00  0.00    -0.457 OA
ENDROOT
BRANCH   1   2
ATOM      2  C   UNL     1     -36.227 152.949   6.577  1.00  0.00    +0.138 A 
ATOM      3  C   UNL     1     -37.738 149.069   5.834  1.00  0.00    +0.133 A 
ATOM      4  C   UNL     1     -36.362 149.342   5.913  1.00  0.00    +0.076 A 
ATOM      5  C   UNL     1     -38.651 150.123   6.014  1.00  0.00    +0.082 A 
ATOM      6  C   UNL     1     -35.864 150.616   6.161  1.00  0.00    +0.078 A 
ATOM      7  C   UNL     1     -38.156 151.414   6.264  1.00  0.00    +0.032 A 
ATOM      8  N   UNL     1     -34.533 150.786   6.223  1.00  0.00    -0.256 NA
ATOM      9  C   UNL     1     -36.772 151.672   6.338  1.00  0.00    +0.044 A 
ATOM     10  C   UNL     1     -34.053 152.023   6.478  1.00  0.00    +0.115 A 
ATOM     11  C   UNL     1     -34.851 153.130   6.670  1.00  0.00    +0.068 A 
BRANCH   3  12
ATOM     12  O   UNL     1     -38.241 147.815   5.588  1.00  0.00    -0.496 OA
ATOM     13  C   UNL     1     -38.182 147.318   4.254  1.00  0.00    +0.278 C 
ENDBRANCH   3  12
BRANCH   5  14
ATOM     14  C   UNL     1     -40.142 149.990   5.960  1.00  0.00    +0.252 C 
ATOM     15  N   UNL     1     -40.766 150.131   4.756  1.00  0.00    -0.365 N 
ATOM     16  O   UNL     1     -40.803 149.761   6.967  1.00  0.00    -0.269 OA
ATOM     17  H   UNL     1     -41.772 150.048   4.720  1.00  0.00    +0.159 HD
ATOM     18  H   UNL     1     -40.246 150.328   3.910  1.00  0.00    +0.159 HD
ENDBRANCH   5  14
ENDBRANCH   1   2
BRANCH   1  19
ATOM     19  C   UNL     1     -37.231 154.923   5.776  1.00  0.00    +0.129 A 
ATOM     20  C   UNL     1     -37.676 154.586   4.498  1.00  0.00    +0.049 A 
ATOM     21  C   UNL     1     -36.979 156.255   6.097  1.00  0.00    +0.069 A 
ATOM     22  C   UNL     1     -37.828 155.579   3.521  1.00  0.00    +0.031 A 
ATOM     23  C   UNL     1     -37.135 157.242   5.121  1.00  0.00    +0.068 A 
ATOM     24  C   UNL     1     -37.551 156.917   3.816  1.00  0.00    +0.061 A 
ATOM     25 Cl   UNL     1     -36.798 158.884   5.564  1.00  0.00    -0.082 Cl
BRANCH  24  26
ATOM     26  N   UNL     1     -37.696 157.961   2.873  1.00  0.00    -0.307 N 
ATOM     27  C   UNL     1     -38.857 158.417   2.287  1.00  0.00    +0.319 C 
ATOM     28  O   UNL     1     -39.974 157.932   2.416  1.00  0.00    -0.248 OA
ATOM     29  N   UNL     1     -38.601 159.517   1.482  1.00  0.00    -0.335 N 
ATOM     30  H   UNL     1     -36.831 158.303   2.476  1.00  0.00    +0.171 HD
ATOM     31  H   UNL     1     -37.783 160.058   1.722  1.00  0.00    +0.165 HD
BRANCH  29  32
ATOM     32  C   UNL     1     -39.655 160.201   0.797  1.00  0.00    +0.084 C 
ATOM     33  C   UNL     1     -39.360 161.051  -0.408  1.00  0.00    +0.027 C 
ATOM     34  C   UNL     1     -40.095 159.753  -0.571  1.00  0.00    +0.027 C 
ENDBRANCH  29  32
ENDBRANCH  24  26
ENDBRANCH   1  19
TORSDOF 6
ENDMDL
MODEL 5
REMARK VINA RESULT:    -8.570      3.054      5.237
REMARK INTER + INTRA:         -11.787
REMARK INTER:                 -11.840
REMARK INTRA:                   0.053
REMARK UNBOUND:                -0.211
REMARK SMILES COc1cc2nccc(Oc3ccc(NC(=O)NC4CC4)c(Cl)c3)c2cc1C(N)=O
REMARK SMILES IDX 10 1 9 2 3 3 4 4 27 5 5 6 26 7 6 8 25 9 7 10 8 11 2 12 1 13
REMARK SMILES IDX 28 14 29 15 30 16 11 19 12 20 24 21 13 22 22 23 14 24 23 25
REMARK SMILES IDX 15 26 16 27 17 28 18 29 19 32 20 33 21 34
REMARK H PARENT 29 17 29 18 15 30 18 31
ROOT
ATOM      1  O   UNL     1     -38.659 163.146  -6.566  1.00  0.00    -0.457 OA
ENDROOT
BRANCH   1   2
ATOM      2  C   UNL     1     -37.914 162.498  -7.529  1.00  0.00    +0.138 A 
ATOM      3  C   UNL     1     -36.369 164.610 -10.852  1.00  0.00    +0.133 A 
ATOM      4  C   UNL     1     -36.193 163.225 -10.688  1.00  0.00    +0.076 A 
ATOM      5  C   UNL     1     -37.091 165.323  -9.879  1.00  0.00    +0.082 A 
ATOM      6  C   UNL     1     -36.703 162.530  -9.598  1.00  0.00    +0.078 A 
ATOM      7  C   UNL     1     -37.609 164.628  -8.774  1.00  0.00    +0.032 A 
ATOM      8  N   UNL     1     -36.490 161.205  -9.522  1.00  0.00    -0.256 NA
ATOM      9  C   UNL     1     -37.422 163.238  -8.622  1.00  0.00    +0.044 A 
ATOM     10  C   UNL     1     -36.999 160.530  -8.468  1.00  0.00    +0.115 A 
ATOM     11  C   UNL     1     -37.721 161.123  -7.455  1.00  0.00    +0.068 A 
BRANCH   3  12
ATOM     12  O   UNL     1     -35.868 165.307 -11.924  1.00  0.00    -0.496 OA
ATOM     13  C   UNL     1     -34.454 165.346 -12.097  1.00  0.00    +0.278 C 
ENDBRANCH   3  12
BRANCH   5  14
ATOM     14  C   UNL     1     -37.362 166.795  -9.915  1.00  0.00    +0.252 C 
ATOM     15  N   UNL     1     -36.304 167.653  -9.926  1.00  0.00    -0.365 N 
ATOM     16  O   UNL     1     -38.506 167.236  -9.934  1.00  0.00    -0.269 OA
ATOM     17  H   UNL     1     -36.486 168.647  -9.945  1.00  0.00    +0.159 HD
ATOM     18  H   UNL     1     -35.349 167.317  -9.904  1.00  0.00    +0.159 HD
ENDBRANCH   5  14
ENDBRANCH   1   2
BRANCH   1  19
ATOM     19  C   UNL     1     -38.754 162.546  -5.329  1.00  0.00    +0.129 A 
ATOM     20  C   UNL     1     -38.871 161.168  -5.147  1.00  0.00    +0.049 A 
ATOM     21  C   UNL     1     -38.657 163.388  -4.224  1.00  0.00    +0.069 A 
ATOM     22  C   UNL     1     -38.935 160.631  -3.855  1.00  0.00    +0.031 A 
ATOM     23  C   UNL     1     -38.718 162.849  -2.937  1.00  0.00    +0.068 A 
ATOM     24  C   UNL     1     -38.869 161.464  -2.734  1.00  0.00    +0.061 A 
ATOM     25 Cl   UNL     1     -38.605 163.937  -1.593  1.00  0.00    -0.082 Cl
BRANCH  24  26
ATOM     26  N   UNL     1     -38.920 160.977  -1.407  1.00  0.00    -0.307 N 
ATOM     27  C   UNL     1     -40.011 160.919  -0.568  1.00  0.00    +0.319 C 
ATOM     28  O   UNL     1     -41.128 161.367  -0.798  1.00  0.00    -0.248 OA
ATOM     29  N   UNL     1     -39.681 160.292   0.624  1.00  0.00    -0.335 N 
ATOM     30  H   UNL     1     -38.020 160.795  -0.983  1.00  0.00    +0.171 HD
ATOM     31  H   UNL     1     -38.907 159.647   0.583  1.00  0.00    +0.165 HD
BRANCH  29  32
ATOM     32  C   UNL     1     -40.660 160.069   1.645  1.00  0.00    +0.084 C 
ATOM     33  C   UNL     1     -41.817 159.139   1.406  1.00  0.00    +0.027 C 
ATOM     34  C   UNL     1     -40.728 158.748   2.361  1.00  0.00    +0.027 C 
ENDBRANCH  29  32
ENDBRANCH  24  26
ENDBRANCH   1  19
TORSDOF 6
ENDMDL
MODEL 6
REMARK VINA RESULT:    -8.497      3.487      6.508
REMARK INTER + INTRA:         -11.688
REMARK INTER:                 -10.977
REMARK INTRA:                  -0.711
REMARK UNBOUND:                -0.211
REMARK SMILES COc1cc2nccc(Oc3ccc(NC(=O)NC4CC4)c(Cl)c3)c2cc1C(N)=O
REMARK SMILES IDX 10 1 9 2 3 3 4 4 27 5 5 6 26 7 6 8 25 9 7 10 8 11 2 12 1 13
REMARK SMILES IDX 28 14 29 15 30 16 11 19 12 20 24 21 13 22 22 23 14 24 23 25
REMARK SMILES IDX 15 26 16 27 17 28 18 29 19 32 20 33 21 34
REMARK H PARENT 29 17 29 18 15 30 18 31
ROOT
ATOM      1  O   UNL     1     -36.520 162.531  -7.595  1.00  0.00    -0.457 OA
ENDROOT
BRANCH   1   2
ATOM      2  C   UNL     1     -37.101 162.542  -8.846  1.00  0.00    +0.138 A 
ATOM      3  C   UNL     1     -36.924 159.132 -11.344  1.00  0.00    +0.133 A 
ATOM      4  C   UNL     1     -37.529 160.335 -11.747  1.00  0.00    +0.076 A 
ATOM      5  C   UNL     1     -36.348 159.058 -10.063  1.00  0.00    +0.082 A 
ATOM      6  C   UNL     1     -37.585 161.457 -10.929  1.00  0.00    +0.078 A 
ATOM      7  C   UNL     1     -36.401 160.188  -9.228  1.00  0.00    +0.032 A 
ATOM      8  N   UNL     1     -38.181 162.566 -11.397  1.00  0.00    -0.256 NA
ATOM      9  C   UNL     1     -37.015 161.387  -9.648  1.00  0.00    +0.044 A 
ATOM     10  C   UNL     1     -38.222 163.659 -10.604  1.00  0.00    +0.115 A 
ATOM     11  C   UNL     1     -37.693 163.702  -9.332  1.00  0.00    +0.068 A 
BRANCH   3  12
ATOM     12  O   UNL     1     -36.864 158.018 -12.143  1.00  0.00    -0.496 OA
ATOM     13  C   UNL     1     -37.938 157.084 -12.074  1.00  0.00    +0.278 C 
ENDBRANCH   3  12
BRANCH   5  14
ATOM     14  C   UNL     1     -35.668 157.852  -9.493  1.00  0.00    +0.252 C 
ATOM     15  N   UNL     1     -34.356 157.640  -9.794  1.00  0.00    -0.365 N 
ATOM     16  O   UNL     1     -36.264 157.061  -8.769  1.00  0.00    -0.269 OA
ATOM     17  H   UNL     1     -33.898 156.823  -9.415  1.00  0.00    +0.159 HD
ATOM     18  H   UNL     1     -33.842 158.272 -10.395  1.00  0.00    +0.159 HD
ENDBRANCH   5  14
ENDBRANCH   1   2
BRANCH   1  19
ATOM     19  C   UNL     1     -37.348 162.316  -6.515  1.00  0.00    +0.129 A 
ATOM     20  C   UNL     1     -38.076 161.142  -6.322  1.00  0.00    +0.049 A 
ATOM     21  C   UNL     1     -37.380 163.321  -5.551  1.00  0.00    +0.069 A 
ATOM     22  C   UNL     1     -38.875 160.987  -5.183  1.00  0.00    +0.031 A 
ATOM     23  C   UNL     1     -38.175 163.161  -4.413  1.00  0.00    +0.068 A 
ATOM     24  C   UNL     1     -38.943 161.997  -4.219  1.00  0.00    +0.061 A 
ATOM     25 Cl   UNL     1     -38.193 164.444  -3.247  1.00  0.00    -0.082 Cl
BRANCH  24  26
ATOM     26  N   UNL     1     -39.725 161.893  -3.045  1.00  0.00    -0.307 N 
ATOM     27  C   UNL     1     -39.543 161.037  -1.980  1.00  0.00    +0.319 C 
ATOM     28  O   UNL     1     -38.709 160.143  -1.902  1.00  0.00    -0.248 OA
ATOM     29  N   UNL     1     -40.464 161.298  -0.977  1.00  0.00    -0.335 N 
ATOM     30  H   UNL     1     -40.600 162.398  -3.066  1.00  0.00    +0.171 HD
ATOM     31  H   UNL     1     -40.832 162.237  -0.950  1.00  0.00    +0.165 HD
BRANCH  29  32
ATOM     32  C   UNL     1     -40.451 160.570   0.256  1.00  0.00    +0.084 C 
ATOM     33  C   UNL     1     -41.735 160.255   0.972  1.00  0.00    +0.027 C 
ATOM     34  C   UNL     1     -40.958 159.155   0.312  1.00  0.00    +0.027 C 
ENDBRANCH  29  32
ENDBRANCH  24  26
ENDBRANCH   1  19
TORSDOF 6
ENDMDL
MODEL 7
REMARK VINA RESULT:    -8.472      9.549     13.061
REMARK INTER + INTRA:         -11.654
REMARK INTER:                 -10.349
REMARK INTRA:                  -1.305
REMARK UNBOUND:                -0.211
REMARK SMILES COc1cc2nccc(Oc3ccc(NC(=O)NC4CC4)c(Cl)c3)c2cc1C(N)=O
REMARK SMILES IDX 10 1 9 2 3 3 4 4 27 5 5 6 26 7 6 8 25 9 7 10 8 11 2 12 1 13
REMARK SMILES IDX 28 14 29 15 30 16 11 19 12 20 24 21 13 22 22 23 14 24 23 25
REMARK SMILES IDX 15 26 16 27 17 28 18 29 19 32 20 33 21 34
REMARK H PARENT 29 17 29 18 15 30 18 31
ROOT
ATOM      1  O   UNL     1     -38.029 152.465   6.484  1.00  0.00    -0.457 OA
ENDROOT
BRANCH   1   2
ATOM      2  C   UNL     1     -36.651 152.428   6.465  1.00  0.00    +0.138 A 
ATOM      3  C   UNL     1     -34.421 155.624   4.819  1.00  0.00    +0.133 A 
ATOM      4  C   UNL     1     -33.815 154.464   5.333  1.00  0.00    +0.076 A 
ATOM      5  C   UNL     1     -35.823 155.726   4.847  1.00  0.00    +0.082 A 
ATOM      6  C   UNL     1     -34.546 153.412   5.870  1.00  0.00    +0.078 A 
ATOM      7  C   UNL     1     -36.571 154.667   5.390  1.00  0.00    +0.032 A 
ATOM      8  N   UNL     1     -33.885 152.339   6.336  1.00  0.00    -0.256 NA
ATOM      9  C   UNL     1     -35.947 153.511   5.904  1.00  0.00    +0.044 A 
ATOM     10  C   UNL     1     -34.600 151.312   6.846  1.00  0.00    +0.115 A 
ATOM     11  C   UNL     1     -35.976 151.303   6.926  1.00  0.00    +0.068 A 
BRANCH   3  12
ATOM     12  O   UNL     1     -33.708 156.669   4.287  1.00  0.00    -0.496 OA
ATOM     13  C   UNL     1     -33.036 157.548   5.184  1.00  0.00    +0.278 C 
ENDBRANCH   3  12
BRANCH   5  14
ATOM     14  C   UNL     1     -36.612 156.893   4.339  1.00  0.00    +0.252 C 
ATOM     15  N   UNL     1     -36.676 158.019   5.104  1.00  0.00    -0.365 N 
ATOM     16  O   UNL     1     -37.194 156.853   3.260  1.00  0.00    -0.269 OA
ATOM     17  H   UNL     1     -37.212 158.805   4.765  1.00  0.00    +0.159 HD
ATOM     18  H   UNL     1     -36.211 158.078   6.001  1.00  0.00    +0.159 HD
ENDBRANCH   5  14
ENDBRANCH   1   2
BRANCH   1  19
ATOM     19  C   UNL     1     -38.697 151.602   5.642  1.00  0.00    +0.129 A 
ATOM     20  C   UNL     1     -38.629 151.674   4.251  1.00  0.00    +0.049 A 
ATOM     21  C   UNL     1     -39.414 150.575   6.253  1.00  0.00    +0.069 A 
ATOM     22  C   UNL     1     -39.316 150.742   3.463  1.00  0.00    +0.031 A 
ATOM     23  C   UNL     1     -40.095 149.645   5.463  1.00  0.00    +0.068 A 
ATOM     24  C   UNL     1     -40.065 149.722   4.058  1.00  0.00    +0.061 A 
ATOM     25 Cl   UNL     1     -40.983 148.392   6.267  1.00  0.00    -0.082 Cl
BRANCH  24  26
ATOM     26  N   UNL     1     -40.770 148.748   3.313  1.00  0.00    -0.307 N 
ATOM     27  C   UNL     1     -40.297 147.549   2.824  1.00  0.00    +0.319 C 
ATOM     28  O   UNL     1     -39.140 147.151   2.875  1.00  0.00    -0.248 OA
ATOM     29  N   UNL     1     -41.317 146.828   2.222  1.00  0.00    -0.335 N 
ATOM     30  H   UNL     1     -41.677 149.041   2.976  1.00  0.00    +0.171 HD
ATOM     31  H   UNL     1     -42.251 147.030   2.547  1.00  0.00    +0.165 HD
BRANCH  29  32
ATOM     32  C   UNL     1     -41.087 145.525   1.675  1.00  0.00    +0.084 C 
ATOM     33  C   UNL     1     -42.229 144.569   1.470  1.00  0.00    +0.027 C 
ATOM     34  C   UNL     1     -41.550 145.188   0.284  1.00  0.00    +0.027 C 
ENDBRANCH  29  32
ENDBRANCH  24  26
ENDBRANCH   1  19
TORSDOF 6
ENDMDL
MODEL 8
REMARK VINA RESULT:    -8.437     11.241     14.000
REMARK INTER + INTRA:         -11.608
REMARK INTER:                 -10.226
REMARK INTRA:                  -1.381
REMARK UNBOUND:                -0.211
REMARK SMILES COc1cc2nccc(Oc3ccc(NC(=O)NC4CC4)c(Cl)c3)c2cc1C(N)=O
REMARK SMILES IDX 10 1 9 2 3 3 4 4 27 5 5 6 26 7 6 8 25 9 7 10 8 11 2 12 1 13
REMARK SMILES IDX 28 14 29 15 30 16 11 19 12 20 24 21 13 22 22 23 14 24 23 25
REMARK SMILES IDX 15 26 16 27 17 28 18 29 19 32 20 33 21 34
REMARK H PARENT 29 17 29 18 15 30 18 31
ROOT
ATOM      1  O   UNL     1     -36.126 152.148   5.104  1.00  0.00    -0.457 OA
ENDROOT
BRANCH   1   2
ATOM      2  C   UNL     1     -36.342 150.995   5.829  1.00  0.00    +0.138 A 
ATOM      3  C   UNL     1     -39.818 148.666   5.208  1.00  0.00    +0.133 A 
ATOM      4  C   UNL     1     -38.853 148.341   6.176  1.00  0.00    +0.076 A 
ATOM      5  C   UNL     1     -39.627 149.813   4.417  1.00  0.00    +0.082 A 
ATOM      6  C   UNL     1     -37.712 149.107   6.383  1.00  0.00    +0.078 A 
ATOM      7  C   UNL     1     -38.476 150.593   4.620  1.00  0.00    +0.032 A 
ATOM      8  N   UNL     1     -36.842 148.723   7.333  1.00  0.00    -0.256 NA
ATOM      9  C   UNL     1     -37.515 150.251   5.594  1.00  0.00    +0.044 A 
ATOM     10  C   UNL     1     -35.741 149.478   7.542  1.00  0.00    +0.115 A 
ATOM     11  C   UNL     1     -35.450 150.620   6.828  1.00  0.00    +0.068 A 
BRANCH   3  12
ATOM     12  O   UNL     1     -40.948 147.915   4.993  1.00  0.00    -0.496 OA
ATOM     13  C   UNL     1     -40.802 146.651   4.354  1.00  0.00    +0.278 C 
ENDBRANCH   3  12
BRANCH   5  14
ATOM     14  C   UNL     1     -40.563 150.289   3.350  1.00  0.00    +0.252 C 
ATOM     15  N   UNL     1     -41.893 150.366   3.636  1.00  0.00    -0.365 N 
ATOM     16  O   UNL     1     -40.159 150.606   2.236  1.00  0.00    -0.269 OA
ATOM     17  H   UNL     1     -42.527 150.682   2.915  1.00  0.00    +0.159 HD
ATOM     18  H   UNL     1     -42.256 150.104   4.544  1.00  0.00    +0.159 HD
ENDBRANCH   5  14
ENDBRANCH   1   2
BRANCH   1  19
ATOM     19  C   UNL     1     -36.268 153.348   5.765  1.00  0.00    +0.129 A 
ATOM     20  C   UNL     1     -37.456 153.758   6.371  1.00  0.00    +0.049 A 
ATOM     21  C   UNL     1     -35.124 154.135   5.870  1.00  0.00    +0.069 A 
ATOM     22  C   UNL     1     -37.513 154.982   7.049  1.00  0.00    +0.031 A 
ATOM     23  C   UNL     1     -35.185 155.354   6.551  1.00  0.00    +0.068 A 
ATOM     24  C   UNL     1     -36.383 155.800   7.140  1.00  0.00    +0.061 A 
ATOM     25 Cl   UNL     1     -33.739 156.305   6.646  1.00  0.00    -0.082 Cl
BRANCH  24  26
ATOM     26  N   UNL     1     -36.380 157.040   7.820  1.00  0.00    -0.307 N 
ATOM     27  C   UNL     1     -36.683 158.285   7.310  1.00  0.00    +0.319 C 
ATOM     28  O   UNL     1     -36.926 158.550   6.139  1.00  0.00    -0.248 OA
ATOM     29  N   UNL     1     -36.655 159.245   8.311  1.00  0.00    -0.335 N 
ATOM     30  H   UNL     1     -35.962 157.025   8.740  1.00  0.00    +0.171 HD
ATOM     31  H   UNL     1     -36.824 158.910   9.248  1.00  0.00    +0.165 HD
BRANCH  29  32
ATOM     32  C   UNL     1     -36.980 160.613   8.041  1.00  0.00    +0.084 C 
ATOM     33  C   UNL     1     -38.071 161.306   8.809  1.00  0.00    +0.027 C 
ATOM     34  C   UNL     1     -36.638 161.689   9.035  1.00  0.00    +0.027 C 
ENDBRANCH  29  32
ENDBRANCH  24  26
ENDBRANCH   1  19
TORSDOF 6
ENDMDL
MODEL 9
REMARK VINA RESULT:    -8.394      2.896      3.794
REMARK INTER + INTRA:         -11.549
REMARK INTER:                 -12.463
REMARK INTRA:                   0.914
REMARK UNBOUND:                -0.211
REMARK SMILES COc1cc2nccc(Oc3ccc(NC(=O)NC4CC4)c(Cl)c3)c2cc1C(N)=O
REMARK SMILES IDX 10 1 9 2 3 3 4 4 27 5 5 6 26 7 6 8 25 9 7 10 8 11 2 12 1 13
REMARK SMILES IDX 28 14 29 15 30 16 11 19 12 20 24 21 13 22 22 23 14 24 23 25
REMARK SMILES IDX 15 26 16 27 17 28 18 29 19 32 20 33 21 34
REMARK H PARENT 29 17 29 18 15 30 18 31
ROOT
ATOM      1  O   UNL     1     -38.547 161.831  -5.670  1.00  0.00    -0.457 OA
ENDROOT
BRANCH   1   2
ATOM      2  C   UNL     1     -38.407 163.167  -5.979  1.00  0.00    +0.138 A 
ATOM      3  C   UNL     1     -37.833 164.415  -9.980  1.00  0.00    +0.133 A 
ATOM      4  C   UNL     1     -37.850 165.316  -8.902  1.00  0.00    +0.076 A 
ATOM      5  C   UNL     1     -38.008 163.044  -9.722  1.00  0.00    +0.082 A 
ATOM      6  C   UNL     1     -38.035 164.908  -7.587  1.00  0.00    +0.078 A 
ATOM      7  C   UNL     1     -38.196 162.622  -8.395  1.00  0.00    +0.032 A 
ATOM      8  N   UNL     1     -38.035 165.838  -6.616  1.00  0.00    -0.256 NA
ATOM      9  C   UNL     1     -38.213 163.540  -7.324  1.00  0.00    +0.044 A 
ATOM     10  C   UNL     1     -38.201 165.435  -5.338  1.00  0.00    +0.115 A 
ATOM     11  C   UNL     1     -38.382 164.120  -4.966  1.00  0.00    +0.068 A 
BRANCH   3  12
ATOM     12  O   UNL     1     -37.653 164.809 -11.283  1.00  0.00    -0.496 OA
ATOM     13  C   UNL     1     -37.764 166.196 -11.586  1.00  0.00    +0.278 C 
ENDBRANCH   3  12
BRANCH   5  14
ATOM     14  C   UNL     1     -38.013 161.966 -10.761  1.00  0.00    +0.252 C 
ATOM     15  N   UNL     1     -39.106 161.840 -11.565  1.00  0.00    -0.365 N 
ATOM     16  O   UNL     1     -37.063 161.203 -10.898  1.00  0.00    -0.269 OA
ATOM     17  H   UNL     1     -39.113 161.109 -12.262  1.00  0.00    +0.159 HD
ATOM     18  H   UNL     1     -39.908 162.451 -11.469  1.00  0.00    +0.159 HD
ENDBRANCH   5  14
ENDBRANCH   1   2
BRANCH   1  19
ATOM     19  C   UNL     1     -38.719 161.502  -4.343  1.00  0.00    +0.129 A 
ATOM     20  C   UNL     1     -38.917 162.445  -3.334  1.00  0.00    +0.049 A 
ATOM     21  C   UNL     1     -38.759 160.143  -4.043  1.00  0.00    +0.069 A 
ATOM     22  C   UNL     1     -39.113 162.030  -2.011  1.00  0.00    +0.031 A 
ATOM     23  C   UNL     1     -38.957 159.732  -2.722  1.00  0.00    +0.068 A 
ATOM     24  C   UNL     1     -39.126 160.670  -1.686  1.00  0.00    +0.061 A 
ATOM     25 Cl   UNL     1     -38.987 158.030  -2.395  1.00  0.00    -0.082 Cl
BRANCH  24  26
ATOM     26  N   UNL     1     -39.327 160.194  -0.370  1.00  0.00    -0.307 N 
ATOM     27  C   UNL     1     -40.487 160.226   0.374  1.00  0.00    +0.319 C 
ATOM     28  O   UNL     1     -41.541 160.761   0.052  1.00  0.00    -0.248 OA
ATOM     29  N   UNL     1     -40.310 159.579   1.588  1.00  0.00    -0.335 N 
ATOM     30  H   UNL     1     -38.484 159.942   0.129  1.00  0.00    +0.171 HD
ATOM     31  H   UNL     1     -39.589 158.873   1.610  1.00  0.00    +0.165 HD
BRANCH  29  32
ATOM     32  C   UNL     1     -41.386 159.439   2.522  1.00  0.00    +0.084 C 
ATOM     33  C   UNL     1     -42.764 159.062   2.051  1.00  0.00    +0.027 C 
ATOM     34  C   UNL     1     -41.949 158.080   2.840  1.00  0.00    +0.027 C 
ENDBRANCH  29  32
ENDBRANCH  24  26
ENDBRANCH   1  19
TORSDOF 6
ENDMDL
MODEL 10
REMARK VINA RESULT:    -7.959     10.516     13.506
REMARK INTER + INTRA:         -10.962
REMARK INTER:                  -9.847
REMARK INTRA:                  -1.115
REMARK UNBOUND:                -0.211
REMARK SMILES COc1cc2nccc(Oc3ccc(NC(=O)NC4CC4)c(Cl)c3)c2cc1C(N)=O
REMARK SMILES IDX 10 1 9 2 3 3 4 4 27 5 5 6 26 7 6 8 25 9 7 10 8 11 2 12 1 13
REMARK SMILES IDX 28 14 29 15 30 16 11 19 12 20 24 21 13 22 22 23 14 24 23 25
REMARK SMILES IDX 15 26 16 27 17 28 18 29 19 32 20 33 21 34
REMARK H PARENT 29 17 29 18 15 30 18 31
ROOT
ATOM      1  O   UNL     1     -37.372 148.486   4.677  1.00  0.00    -0.457 OA
ENDROOT
BRANCH   1   2
ATOM      2  C   UNL     1     -38.396 148.083   3.846  1.00  0.00    +0.138 A 
ATOM      3  C   UNL     1     -37.847 147.927  -0.346  1.00  0.00    +0.133 A 
ATOM      4  C   UNL     1     -39.073 147.618   0.269  1.00  0.00    +0.076 A 
ATOM      5  C   UNL     1     -36.761 148.309   0.461  1.00  0.00    +0.082 A 
ATOM      6  C   UNL     1     -39.256 147.672   1.645  1.00  0.00    +0.078 A 
ATOM      7  C   UNL     1     -36.937 148.366   1.854  1.00  0.00    +0.032 A 
ATOM      8  N   UNL     1     -40.463 147.363   2.148  1.00  0.00    -0.256 NA
ATOM      9  C   UNL     1     -38.173 148.050   2.455  1.00  0.00    +0.044 A 
ATOM     10  C   UNL     1     -40.641 147.430   3.485  1.00  0.00    +0.115 A 
ATOM     11  C   UNL     1     -39.649 147.790   4.372  1.00  0.00    +0.068 A 
BRANCH   3  12
ATOM     12  O   UNL     1     -37.656 147.876  -1.705  1.00  0.00    -0.496 OA
ATOM     13  C   UNL     1     -38.610 147.168  -2.490  1.00  0.00    +0.278 C 
ENDBRANCH   3  12
BRANCH   5  14
ATOM     14  C   UNL     1     -35.398 148.669  -0.044  1.00  0.00    +0.252 C 
ATOM     15  N   UNL     1     -35.280 149.703  -0.923  1.00  0.00    -0.365 N 
ATOM     16  O   UNL     1     -34.398 148.055   0.315  1.00  0.00    -0.269 OA
ATOM     17  H   UNL     1     -34.362 149.943  -1.269  1.00  0.00    +0.159 HD
ATOM     18  H   UNL     1     -36.089 150.223  -1.242  1.00  0.00    +0.159 HD
ENDBRANCH   5  14
ENDBRANCH   1   2
BRANCH   1  19
ATOM     19  C   UNL     1     -37.364 149.803   5.080  1.00  0.00    +0.129 A 
ATOM     20  C   UNL     1     -38.236 150.769   4.577  1.00  0.00    +0.049 A 
ATOM     21  C   UNL     1     -36.469 150.134   6.095  1.00  0.00    +0.069 A 
ATOM     22  C   UNL     1     -38.184 152.083   5.058  1.00  0.00    +0.031 A 
ATOM     23  C   UNL     1     -36.423 151.445   6.575  1.00  0.00    +0.068 A 
ATOM     24  C   UNL     1     -37.272 152.441   6.055  1.00  0.00    +0.061 A 
ATOM     25 Cl   UNL     1     -35.285 151.812   7.829  1.00  0.00    -0.082 Cl
BRANCH  24  26
ATOM     26  N   UNL     1     -37.181 153.749   6.585  1.00  0.00    -0.307 N 
ATOM     27  C   UNL     1     -36.358 154.774   6.172  1.00  0.00    +0.319 C 
ATOM     28  O   UNL     1     -35.483 154.703   5.317  1.00  0.00    -0.248 OA
ATOM     29  N   UNL     1     -36.625 155.935   6.881  1.00  0.00    -0.335 N 
ATOM     30  H   UNL     1     -37.668 153.892   7.459  1.00  0.00    +0.171 HD
ATOM     31  H   UNL     1     -37.557 156.015   7.261  1.00  0.00    +0.165 HD
BRANCH  29  32
ATOM     32  C   UNL     1     -35.930 157.156   6.604  1.00  0.00    +0.084 C 
ATOM     33  C   UNL     1     -36.556 158.214   5.739  1.00  0.00    +0.027 C 
ATOM     34  C   UNL     1     -36.393 158.453   7.211  1.00  0.00    +0.027 C 
ENDBRANCH  29  32
ENDBRANCH  24  26
ENDBRANCH   1  19
TORSDOF 6
ENDMDL
