REMARK SMILES COc1cc2nccc(Oc3ccc(NC(=O)Nc4cc(C)on4)c(Cl)c3)c2cc1OC
REMARK SMILES IDX 11 1 12 2 13 3 14 4 25 5 26 6 27 7 10 8 9 9 3 10 4 11 30 12
REMARK SMILES IDX 5 13 29 14 6 15 28 16 7 17 8 18 2 19 1 20 31 21 32 22 15 23
REMARK SMILES IDX 16 24 17 25 18 26 19 29 20 30 24 31 21 32 23 33 22 34
REMARK H PARENT 15 27 18 28
ROOT
ATOM      1  C   UNL     1      -0.508  -0.680  -1.457  1.00  0.00    +0.129 A 
ATOM      2  C   UNL     1      -0.054  -0.008  -0.322  1.00  0.00    +0.049 A 
ATOM      3  C   UNL     1       1.315   0.027  -0.025  1.00  0.00    +0.031 A 
ATOM      4  C   UNL     1       2.240  -0.616  -0.851  1.00  0.00    +0.061 A 
ATOM      5  C   UNL     1       1.759  -1.316  -1.975  1.00  0.00    +0.068 A 
ATOM      6 Cl   UNL     1       2.846  -2.159  -3.029  1.00  0.00    -0.082 Cl
ATOM      7  C   UNL     1       0.396  -1.352  -2.276  1.00  0.00    +0.069 A 
ENDROOT
BRANCH   1   8
ATOM      8  O   UNL     1      -1.839  -0.783  -1.798  1.00  0.00    -0.457 OA
BRANCH   8   9
ATOM      9  C   UNL     1      -2.629   0.333  -1.613  1.00  0.00    +0.138 A 
ATOM     10  C   UNL     1      -6.117   0.144   0.743  1.00  0.00    +0.162 A 
ATOM     11  C   UNL     1      -5.730   1.316   0.083  1.00  0.00    +0.079 A 
ATOM     12  C   UNL     1      -5.329  -1.012   0.620  1.00  0.00    +0.161 A 
ATOM     13  C   UNL     1      -4.583   1.377  -0.696  1.00  0.00    +0.078 A 
ATOM     14  C   UNL     1      -4.172  -0.965  -0.160  1.00  0.00    +0.064 A 
ATOM     15  N   UNL     1      -4.277   2.538  -1.303  1.00  0.00    -0.256 NA
ATOM     16  C   UNL     1      -3.789   0.224  -0.821  1.00  0.00    +0.047 A 
ATOM     17  C   UNL     1      -3.166   2.591  -2.070  1.00  0.00    +0.115 A 
ATOM     18  C   UNL     1      -2.318   1.523  -2.264  1.00  0.00    +0.068 A 
BRANCH  10  19
ATOM     19  O   UNL     1      -7.241   0.028   1.525  1.00  0.00    -0.493 OA
ATOM     20  C   UNL     1      -8.054   1.182   1.686  1.00  0.00    +0.278 C 
ENDBRANCH  10  19
BRANCH  12  21
ATOM     21  O   UNL     1      -5.769  -2.122   1.294  1.00  0.00    -0.493 OA
ATOM     22  C   UNL     1      -4.984  -3.302   1.211  1.00  0.00    +0.278 C 
ENDBRANCH  12  21
ENDBRANCH   8   9
ENDBRANCH   1   8
BRANCH   4  23
ATOM     23  N   UNL     1       3.634  -0.623  -0.602  1.00  0.00    -0.306 N 
ATOM     24  C   UNL     1       4.336   0.124   0.335  1.00  0.00    +0.324 C 
ATOM     25  O   UNL     1       3.834   0.978   1.052  1.00  0.00    -0.248 OA
ATOM     26  N   UNL     1       5.670  -0.245   0.336  1.00  0.00    -0.289 N 
ATOM     27  H   UNL     1       4.181  -1.120  -1.292  1.00  0.00    +0.171 HD
ATOM     28  H   UNL     1       5.938  -1.078  -0.158  1.00  0.00    +0.173 HD
BRANCH  26  29
ATOM     29  C   UNL     1       6.653   0.357   1.099  1.00  0.00    +0.177 A 
ATOM     30  C   UNL     1       7.989  -0.115   1.160  1.00  0.00    +0.095 A 
ATOM     31  N   UNL     1       6.510   1.448   1.856  1.00  0.00    -0.062 NA
ATOM     32  C   UNL     1       8.629   0.756   2.006  1.00  0.00    +0.135 A 
ATOM     33  O   UNL     1       7.743   1.695   2.425  1.00  0.00    -0.360 OA
ATOM     34  C   UNL     1      10.003   0.875   2.522  1.00  0.00    +0.091 C 
ENDBRANCH  26  29
ENDBRANCH   4  23
TORSDOF 6
