MODEL 1
REMARK VINA RESULT:    -9.359      0.000      0.000
REMARK INTER + INTRA:         -12.241
REMARK INTER:                 -12.642
REMARK INTRA:                   0.401
REMARK UNBOUND:                 0.401
REMARK SMILES COc1cc2nccc(Oc3ccc(NC(=O)Nc4cc(C)on4)c(Cl)c3)c2cc1OC
REMARK SMILES IDX 11 1 12 2 13 3 14 4 25 5 26 6 27 7 10 8 9 9 3 10 4 11 30 12
REMARK SMILES IDX 5 13 29 14 6 15 28 16 7 17 8 18 2 19 1 20 31 21 32 22 15 23
REMARK SMILES IDX 16 24 17 25 18 26 19 29 20 30 24 31 21 32 23 33 22 34
REMARK H PARENT 15 27 18 28
ROOT
ATOM      1  C   UNL     1     -11.841   1.446 -11.828  1.00  0.00    +0.129 A 
ATOM      2  C   UNL     1     -13.121   1.992 -11.928  1.00  0.00    +0.049 A 
ATOM      3  C   UNL     1     -14.155   1.514 -11.112  1.00  0.00    +0.031 A 
ATOM      4  C   UNL     1     -13.924   0.483 -10.198  1.00  0.00    +0.061 A 
ATOM      5  C   UNL     1     -12.633  -0.077 -10.135  1.00  0.00    +0.068 A 
ATOM      6 Cl   UNL     1     -12.280  -1.376  -9.044  1.00  0.00    -0.082 Cl
ATOM      7  C   UNL     1     -11.598   0.397 -10.944  1.00  0.00    +0.069 A 
ENDROOT
BRANCH   1   8
ATOM      8  O   UNL     1     -10.782   1.842 -12.616  1.00  0.00    -0.457 OA
BRANCH   8   9
ATOM      9  C   UNL     1     -11.019   2.837 -13.542  1.00  0.00    +0.138 A 
ATOM     10  C   UNL     1      -8.395   3.437 -16.784  1.00  0.00    +0.162 A 
ATOM     11  C   UNL     1      -9.512   4.254 -16.572  1.00  0.00    +0.079 A 
ATOM     12  C   UNL     1      -8.128   2.385 -15.893  1.00  0.00    +0.161 A 
ATOM     13  C   UNL     1     -10.374   4.058 -15.502  1.00  0.00    +0.078 A 
ATOM     14  C   UNL     1      -8.987   2.176 -14.812  1.00  0.00    +0.064 A 
ATOM     15  N   UNL     1     -11.426   4.886 -15.362  1.00  0.00    -0.256 NA
ATOM     16  C   UNL     1     -10.113   3.005 -14.608  1.00  0.00    +0.047 A 
ATOM     17  C   UNL     1     -12.256   4.700 -14.313  1.00  0.00    +0.115 A 
ATOM     18  C   UNL     1     -12.095   3.703 -13.376  1.00  0.00    +0.068 A 
BRANCH  10  19
ATOM     19  O   UNL     1      -7.510   3.586 -17.825  1.00  0.00    -0.493 OA
ATOM     20  C   UNL     1      -7.411   4.869 -18.427  1.00  0.00    +0.278 C 
ENDBRANCH  10  19
BRANCH  12  21
ATOM     21  O   UNL     1      -7.018   1.627 -16.163  1.00  0.00    -0.493 OA
ATOM     22  C   UNL     1      -7.126   0.219 -16.020  1.00  0.00    +0.278 C 
ENDBRANCH  12  21
ENDBRANCH   8   9
ENDBRANCH   1   8
BRANCH   4  23
ATOM     23  N   UNL     1     -14.928  -0.047  -9.351  1.00  0.00    -0.306 N 
ATOM     24  C   UNL     1     -15.576   0.585  -8.299  1.00  0.00    +0.324 C 
ATOM     25  O   UNL     1     -15.305   1.708  -7.897  1.00  0.00    -0.248 OA
ATOM     26  N   UNL     1     -16.564  -0.236  -7.785  1.00  0.00    -0.289 N 
ATOM     27  H   UNL     1     -15.068  -1.044  -9.441  1.00  0.00    +0.171 HD
ATOM     28  H   UNL     1     -16.824  -1.057  -8.304  1.00  0.00    +0.173 HD
BRANCH  26  29
ATOM     29  C   UNL     1     -17.344   0.064  -6.684  1.00  0.00    +0.177 A 
ATOM     30  C   UNL     1     -18.670   0.559  -6.781  1.00  0.00    +0.095 A 
ATOM     31  N   UNL     1     -16.993  -0.078  -5.403  1.00  0.00    -0.062 NA
ATOM     32  C   UNL     1     -19.081   0.711  -5.480  1.00  0.00    +0.135 A 
ATOM     33  O   UNL     1     -18.076   0.330  -4.652  1.00  0.00    -0.360 OA
ATOM     34  C   UNL     1     -20.321   1.177  -4.836  1.00  0.00    +0.091 C 
ENDBRANCH  26  29
ENDBRANCH   4  23
TORSDOF 6
ENDMDL
MODEL 2
REMARK VINA RESULT:    -9.225      3.866     10.965
REMARK INTER + INTRA:         -12.060
REMARK INTER:                 -11.107
REMARK INTRA:                  -0.953
REMARK UNBOUND:                 0.401
REMARK SMILES COc1cc2nccc(Oc3ccc(NC(=O)Nc4cc(C)on4)c(Cl)c3)c2cc1OC
REMARK SMILES IDX 11 1 12 2 13 3 14 4 25 5 26 6 27 7 10 8 9 9 3 10 4 11 30 12
REMARK SMILES IDX 5 13 29 14 6 15 28 16 7 17 8 18 2 19 1 20 31 21 32 22 15 23
REMARK SMILES IDX 16 24 17 25 18 26 19 29 20 30 24 31 21 32 23 33 22 34
REMARK H PARENT 15 27 18 28
ROOT
ATOM      1  C   UNL     1     -10.124  -0.087 -13.384  1.00  0.00    +0.129 A 
ATOM      2  C   UNL     1      -8.974  -0.043 -14.173  1.00  0.00    +0.049 A 
ATOM      3  C   UNL     1      -8.605   1.148 -14.813  1.00  0.00    +0.031 A 
ATOM      4  C   UNL     1      -9.385   2.300 -14.680  1.00  0.00    +0.061 A 
ATOM      5  C   UNL     1     -10.559   2.226 -13.905  1.00  0.00    +0.068 A 
ATOM      6 Cl   UNL     1     -11.588   3.608 -13.718  1.00  0.00    -0.082 Cl
ATOM      7  C   UNL     1     -10.929   1.043 -13.264  1.00  0.00    +0.069 A 
ENDROOT
BRANCH   1   8
ATOM      8  O   UNL     1     -10.566  -1.227 -12.748  1.00  0.00    -0.457 OA
BRANCH   8   9
ATOM      9  C   UNL     1     -10.116  -1.451 -11.464  1.00  0.00    +0.138 A 
ATOM     10  C   UNL     1     -12.606  -0.721  -8.144  1.00  0.00    +0.162 A 
ATOM     11  C   UNL     1     -11.284  -1.157  -7.998  1.00  0.00    +0.079 A 
ATOM     12  C   UNL     1     -13.128  -0.513  -9.431  1.00  0.00    +0.161 A 
ATOM     13  C   UNL     1     -10.463  -1.394  -9.092  1.00  0.00    +0.078 A 
ATOM     14  C   UNL     1     -12.314  -0.748 -10.541  1.00  0.00    +0.064 A 
ATOM     15  N   UNL     1      -9.202  -1.809  -8.873  1.00  0.00    -0.256 NA
ATOM     16  C   UNL     1     -10.981  -1.190 -10.383  1.00  0.00    +0.047 A 
ATOM     17  C   UNL     1      -8.401  -2.027  -9.939  1.00  0.00    +0.115 A 
ATOM     18  C   UNL     1      -8.803  -1.857 -11.246  1.00  0.00    +0.068 A 
BRANCH  10  19
ATOM     19  O   UNL     1     -13.462  -0.471  -7.098  1.00  0.00    -0.493 OA
ATOM     20  C   UNL     1     -12.913   0.107  -5.922  1.00  0.00    +0.278 C 
ENDBRANCH  10  19
BRANCH  12  21
ATOM     21  O   UNL     1     -14.430  -0.086  -9.498  1.00  0.00    -0.493 OA
ATOM     22  C   UNL     1     -14.693   1.135 -10.173  1.00  0.00    +0.278 C 
ENDBRANCH  12  21
ENDBRANCH   8   9
ENDBRANCH   1   8
BRANCH   4  23
ATOM     23  N   UNL     1      -9.070   3.530 -15.306  1.00  0.00    -0.306 N 
ATOM     24  C   UNL     1      -9.291   3.895 -16.628  1.00  0.00    +0.324 C 
ATOM     25  O   UNL     1      -9.741   3.146 -17.484  1.00  0.00    -0.248 OA
ATOM     26  N   UNL     1      -8.936   5.218 -16.823  1.00  0.00    -0.289 N 
ATOM     27  H   UNL     1      -8.484   4.143 -14.756  1.00  0.00    +0.171 HD
ATOM     28  H   UNL     1      -8.753   5.790 -16.017  1.00  0.00    +0.173 HD
BRANCH  26  29
ATOM     29  C   UNL     1      -8.963   5.870 -18.042  1.00  0.00    +0.177 A 
ATOM     30  C   UNL     1      -9.649   7.093 -18.255  1.00  0.00    +0.095 A 
ATOM     31  N   UNL     1      -8.356   5.475 -19.164  1.00  0.00    -0.062 NA
ATOM     32  C   UNL     1      -9.420   7.397 -19.574  1.00  0.00    +0.135 A 
ATOM     33  O   UNL     1      -8.644   6.427 -20.121  1.00  0.00    -0.360 OA
ATOM     34  C   UNL     1      -9.820   8.498 -20.466  1.00  0.00    +0.091 C 
ENDBRANCH  26  29
ENDBRANCH   4  23
TORSDOF 6
ENDMDL
MODEL 3
REMARK VINA RESULT:    -9.174      4.024     11.038
REMARK INTER + INTRA:         -11.990
REMARK INTER:                 -10.874
REMARK INTRA:                  -1.116
REMARK UNBOUND:                 0.401
REMARK SMILES COc1cc2nccc(Oc3ccc(NC(=O)Nc4cc(C)on4)c(Cl)c3)c2cc1OC
REMARK SMILES IDX 11 1 12 2 13 3 14 4 25 5 26 6 27 7 10 8 9 9 3 10 4 11 30 12
REMARK SMILES IDX 5 13 29 14 6 15 28 16 7 17 8 18 2 19 1 20 31 21 32 22 15 23
REMARK SMILES IDX 16 24 17 25 18 26 19 29 20 30 24 31 21 32 23 33 22 34
REMARK H PARENT 15 27 18 28
ROOT
ATOM      1  C   UNL     1     -10.214  -0.045 -13.395  1.00  0.00    +0.129 A 
ATOM      2  C   UNL     1     -10.603   1.244 -13.032  1.00  0.00    +0.049 A 
ATOM      3  C   UNL     1     -10.073   2.355 -13.703  1.00  0.00    +0.031 A 
ATOM      4  C   UNL     1      -9.143   2.188 -14.732  1.00  0.00    +0.061 A 
ATOM      5  C   UNL     1      -8.738   0.879 -15.062  1.00  0.00    +0.068 A 
ATOM      6 Cl   UNL     1      -7.569   0.599 -16.309  1.00  0.00    -0.082 Cl
ATOM      7  C   UNL     1      -9.266  -0.230 -14.398  1.00  0.00    +0.069 A 
ENDROOT
BRANCH   1   8
ATOM      8  O   UNL     1     -10.669  -1.182 -12.764  1.00  0.00    -0.457 OA
BRANCH   8   9
ATOM      9  C   UNL     1     -10.193  -1.436 -11.494  1.00  0.00    +0.138 A 
ATOM     10  C   UNL     1     -12.594  -0.727  -8.105  1.00  0.00    +0.162 A 
ATOM     11  C   UNL     1     -11.276  -1.185  -7.998  1.00  0.00    +0.079 A 
ATOM     12  C   UNL     1     -13.142  -0.488  -9.376  1.00  0.00    +0.161 A 
ATOM     13  C   UNL     1     -10.484  -1.415  -9.114  1.00  0.00    +0.078 A 
ATOM     14  C   UNL     1     -12.358  -0.716 -10.507  1.00  0.00    +0.064 A 
ATOM     15  N   UNL     1      -9.225  -1.853  -8.932  1.00  0.00    -0.256 NA
ATOM     16  C   UNL     1     -11.028  -1.180 -10.388  1.00  0.00    +0.047 A 
ATOM     17  C   UNL     1      -8.453  -2.065 -10.020  1.00  0.00    +0.115 A 
ATOM     18  C   UNL     1      -8.882  -1.866 -11.314  1.00  0.00    +0.068 A 
BRANCH  10  19
ATOM     19  O   UNL     1     -13.421  -0.482  -7.035  1.00  0.00    -0.493 OA
ATOM     20  C   UNL     1     -12.868   0.198  -5.917  1.00  0.00    +0.278 C 
ENDBRANCH  10  19
BRANCH  12  21
ATOM     21  O   UNL     1     -14.438  -0.040  -9.404  1.00  0.00    -0.493 OA
ATOM     22  C   UNL     1     -14.726   1.107 -10.189  1.00  0.00    +0.278 C 
ENDBRANCH  12  21
ENDBRANCH   8   9
ENDBRANCH   1   8
BRANCH   4  23
ATOM     23  N   UNL     1      -8.565   3.268 -15.442  1.00  0.00    -0.306 N 
ATOM     24  C   UNL     1      -9.054   3.899 -16.579  1.00  0.00    +0.324 C 
ATOM     25  O   UNL     1     -10.054   3.545 -17.188  1.00  0.00    -0.248 OA
ATOM     26  N   UNL     1      -8.251   4.977 -16.908  1.00  0.00    -0.289 N 
ATOM     27  H   UNL     1      -7.619   3.494 -15.166  1.00  0.00    +0.171 HD
ATOM     28  H   UNL     1      -7.567   5.288 -16.241  1.00  0.00    +0.173 HD
BRANCH  26  29
ATOM     29  C   UNL     1      -8.418   5.771 -18.028  1.00  0.00    +0.177 A 
ATOM     30  C   UNL     1      -9.247   6.921 -18.049  1.00  0.00    +0.095 A 
ATOM     31  N   UNL     1      -7.832   5.597 -19.215  1.00  0.00    -0.062 NA
ATOM     32  C   UNL     1      -9.126   7.415 -19.324  1.00  0.00    +0.135 A 
ATOM     33  O   UNL     1      -8.277   6.622 -20.026  1.00  0.00    -0.360 OA
ATOM     34  C   UNL     1      -9.695   8.565 -20.046  1.00  0.00    +0.091 C 
ENDBRANCH  26  29
ENDBRANCH   4  23
TORSDOF 6
ENDMDL
MODEL 4
REMARK VINA RESULT:    -9.020      2.193      3.424
REMARK INTER + INTRA:         -11.783
REMARK INTER:                 -11.148
REMARK INTRA:                  -0.635
REMARK UNBOUND:                 0.401
REMARK SMILES COc1cc2nccc(Oc3ccc(NC(=O)Nc4cc(C)on4)c(Cl)c3)c2cc1OC
REMARK SMILES IDX 11 1 12 2 13 3 14 4 25 5 26 6 27 7 10 8 9 9 3 10 4 11 30 12
REMARK SMILES IDX 5 13 29 14 6 15 28 16 7 17 8 18 2 19 1 20 31 21 32 22 15 23
REMARK SMILES IDX 16 24 17 25 18 26 19 29 20 30 24 31 21 32 23 33 22 34
REMARK H PARENT 15 27 18 28
ROOT
ATOM      1  C   UNL     1     -10.484   0.297 -13.597  1.00  0.00    +0.129 A 
ATOM      2  C   UNL     1     -11.234   1.427 -13.270  1.00  0.00    +0.049 A 
ATOM      3  C   UNL     1     -11.852   1.523 -12.017  1.00  0.00    +0.031 A 
ATOM      4  C   UNL     1     -11.736   0.490 -11.084  1.00  0.00    +0.061 A 
ATOM      5  C   UNL     1     -11.001  -0.656 -11.444  1.00  0.00    +0.068 A 
ATOM      6 Cl   UNL     1     -10.837  -1.988 -10.347  1.00  0.00    -0.082 Cl
ATOM      7  C   UNL     1     -10.381  -0.756 -12.691  1.00  0.00    +0.069 A 
ENDROOT
BRANCH   1   8
ATOM      8  O   UNL     1      -9.872   0.117 -14.819  1.00  0.00    -0.457 OA
BRANCH   8   9
ATOM      9  C   UNL     1      -8.602   0.633 -14.974  1.00  0.00    +0.138 A 
ATOM     10  C   UNL     1      -7.989   4.322 -16.915  1.00  0.00    +0.162 A 
ATOM     11  C   UNL     1      -6.924   3.548 -16.439  1.00  0.00    +0.079 A 
ATOM     12  C   UNL     1      -9.306   3.863 -16.750  1.00  0.00    +0.161 A 
ATOM     13  C   UNL     1      -7.126   2.331 -15.803  1.00  0.00    +0.078 A 
ATOM     14  C   UNL     1      -9.524   2.641 -16.111  1.00  0.00    +0.064 A 
ATOM     15  N   UNL     1      -6.053   1.642 -15.375  1.00  0.00    -0.256 NA
ATOM     16  C   UNL     1      -8.442   1.868 -15.633  1.00  0.00    +0.047 A 
ATOM     17  C   UNL     1      -6.252   0.452 -14.766  1.00  0.00    +0.115 A 
ATOM     18  C   UNL     1      -7.496  -0.098 -14.550  1.00  0.00    +0.068 A 
BRANCH  10  19
ATOM     19  O   UNL     1      -7.846   5.531 -17.551  1.00  0.00    -0.493 OA
ATOM     20  C   UNL     1      -7.948   5.547 -18.968  1.00  0.00    +0.278 C 
ENDBRANCH  10  19
BRANCH  12  21
ATOM     21  O   UNL     1     -10.298   4.673 -17.241  1.00  0.00    -0.493 OA
ATOM     22  C   UNL     1     -10.963   5.533 -16.328  1.00  0.00    +0.278 C 
ENDBRANCH  12  21
ENDBRANCH   8   9
ENDBRANCH   1   8
BRANCH   4  23
ATOM     23  N   UNL     1     -12.341   0.524  -9.804  1.00  0.00    -0.306 N 
ATOM     24  C   UNL     1     -13.672   0.288  -9.484  1.00  0.00    +0.324 C 
ATOM     25  O   UNL     1     -14.552   0.081 -10.308  1.00  0.00    -0.248 OA
ATOM     26  N   UNL     1     -13.845   0.316  -8.111  1.00  0.00    -0.289 N 
ATOM     27  H   UNL     1     -11.759   0.912  -9.074  1.00  0.00    +0.171 HD
ATOM     28  H   UNL     1     -13.029   0.311  -7.525  1.00  0.00    +0.173 HD
BRANCH  26  29
ATOM     29  C   UNL     1     -15.062   0.192  -7.468  1.00  0.00    +0.177 A 
ATOM     30  C   UNL     1     -15.332  -0.811  -6.503  1.00  0.00    +0.095 A 
ATOM     31  N   UNL     1     -16.129   0.978  -7.634  1.00  0.00    -0.062 NA
ATOM     32  C   UNL     1     -16.627  -0.579  -6.111  1.00  0.00    +0.135 A 
ATOM     33  O   UNL     1     -17.107   0.494  -6.789  1.00  0.00    -0.360 OA
ATOM     34  C   UNL     1     -17.551  -1.219  -5.159  1.00  0.00    +0.091 C 
ENDBRANCH  26  29
ENDBRANCH   4  23
TORSDOF 6
ENDMDL
MODEL 5
REMARK VINA RESULT:    -8.906      3.293     10.536
REMARK INTER + INTRA:         -11.628
REMARK INTER:                 -11.069
REMARK INTRA:                  -0.559
REMARK UNBOUND:                 0.401
REMARK SMILES COc1cc2nccc(Oc3ccc(NC(=O)Nc4cc(C)on4)c(Cl)c3)c2cc1OC
REMARK SMILES IDX 11 1 12 2 13 3 14 4 25 5 26 6 27 7 10 8 9 9 3 10 4 11 30 12
REMARK SMILES IDX 5 13 29 14 6 15 28 16 7 17 8 18 2 19 1 20 31 21 32 22 15 23
REMARK SMILES IDX 16 24 17 25 18 26 19 29 20 30 24 31 21 32 23 33 22 34
REMARK H PARENT 15 27 18 28
ROOT
ATOM      1  C   UNL     1     -12.213   1.051 -11.666  1.00  0.00    +0.129 A 
ATOM      2  C   UNL     1     -10.907   1.236 -12.121  1.00  0.00    +0.049 A 
ATOM      3  C   UNL     1     -10.601   2.313 -12.964  1.00  0.00    +0.031 A 
ATOM      4  C   UNL     1     -11.596   3.206 -13.369  1.00  0.00    +0.061 A 
ATOM      5  C   UNL     1     -12.914   2.984 -12.925  1.00  0.00    +0.068 A 
ATOM      6 Cl   UNL     1     -14.204   4.036 -13.408  1.00  0.00    -0.082 Cl
ATOM      7  C   UNL     1     -13.224   1.914 -12.083  1.00  0.00    +0.069 A 
ENDROOT
BRANCH   1   8
ATOM      8  O   UNL     1     -12.596   0.001 -10.860  1.00  0.00    -0.457 OA
BRANCH   8   9
ATOM      9  C   UNL     1     -13.247   0.310  -9.684  1.00  0.00    +0.138 A 
ATOM     10  C   UNL     1     -11.179   0.329  -6.013  1.00  0.00    +0.162 A 
ATOM     11  C   UNL     1     -12.551   0.591  -6.092  1.00  0.00    +0.079 A 
ATOM     12  C   UNL     1     -10.459   0.046  -7.185  1.00  0.00    +0.161 A 
ATOM     13  C   UNL     1     -13.233   0.581  -7.301  1.00  0.00    +0.078 A 
ATOM     14  C   UNL     1     -11.132   0.033  -8.408  1.00  0.00    +0.064 A 
ATOM     15  N   UNL     1     -14.553   0.839  -7.299  1.00  0.00    -0.256 NA
ATOM     16  C   UNL     1     -12.518   0.300  -8.478  1.00  0.00    +0.047 A 
ATOM     17  C   UNL     1     -15.217   0.817  -8.476  1.00  0.00    +0.115 A 
ATOM     18  C   UNL     1     -14.617   0.552  -9.687  1.00  0.00    +0.068 A 
BRANCH  10  19
ATOM     19  O   UNL     1     -10.455   0.325  -4.844  1.00  0.00    -0.493 OA
ATOM     20  C   UNL     1     -10.640  -0.770  -3.958  1.00  0.00    +0.278 C 
ENDBRANCH  10  19
BRANCH  12  21
ATOM     21  O   UNL     1      -9.119  -0.200  -7.031  1.00  0.00    -0.493 OA
ATOM     22  C   UNL     1      -8.552  -1.270  -7.772  1.00  0.00    +0.278 C 
ENDBRANCH  12  21
ENDBRANCH   8   9
ENDBRANCH   1   8
BRANCH   4  23
ATOM     23  N   UNL     1     -11.352   4.308 -14.224  1.00  0.00    -0.306 N 
ATOM     24  C   UNL     1     -10.719   4.304 -15.460  1.00  0.00    +0.324 C 
ATOM     25  O   UNL     1     -10.201   3.318 -15.966  1.00  0.00    -0.248 OA
ATOM     26  N   UNL     1     -10.770   5.566 -16.026  1.00  0.00    -0.289 N 
ATOM     27  H   UNL     1     -11.531   5.211 -13.806  1.00  0.00    +0.171 HD
ATOM     28  H   UNL     1     -11.376   6.253 -15.613  1.00  0.00    +0.173 HD
BRANCH  26  29
ATOM     29  C   UNL     1     -10.169   5.919 -17.220  1.00  0.00    +0.177 A 
ATOM     30  C   UNL     1     -10.895   6.181 -18.409  1.00  0.00    +0.095 A 
ATOM     31  N   UNL     1      -8.860   6.080 -17.429  1.00  0.00    -0.062 NA
ATOM     32  C   UNL     1      -9.938   6.499 -19.340  1.00  0.00    +0.135 A 
ATOM     33  O   UNL     1      -8.716   6.439 -18.754  1.00  0.00    -0.360 OA
ATOM     34  C   UNL     1      -9.965   6.873 -20.764  1.00  0.00    +0.091 C 
ENDBRANCH  26  29
ENDBRANCH   4  23
TORSDOF 6
ENDMDL
MODEL 6
REMARK VINA RESULT:    -8.885      2.827      3.689
REMARK INTER + INTRA:         -11.601
REMARK INTER:                 -11.842
REMARK INTRA:                   0.241
REMARK UNBOUND:                 0.401
REMARK SMILES COc1cc2nccc(Oc3ccc(NC(=O)Nc4cc(C)on4)c(Cl)c3)c2cc1OC
REMARK SMILES IDX 11 1 12 2 13 3 14 4 25 5 26 6 27 7 10 8 9 9 3 10 4 11 30 12
REMARK SMILES IDX 5 13 29 14 6 15 28 16 7 17 8 18 2 19 1 20 31 21 32 22 15 23
REMARK SMILES IDX 16 24 17 25 18 26 19 29 20 30 24 31 21 32 23 33 22 34
REMARK H PARENT 15 27 18 28
ROOT
ATOM      1  C   UNL     1     -12.602   1.910 -12.013  1.00  0.00    +0.129 A 
ATOM      2  C   UNL     1     -13.962   2.021 -11.724  1.00  0.00    +0.049 A 
ATOM      3  C   UNL     1     -14.510   1.329 -10.636  1.00  0.00    +0.031 A 
ATOM      4  C   UNL     1     -13.708   0.512  -9.835  1.00  0.00    +0.061 A 
ATOM      5  C   UNL     1     -12.343   0.387 -10.162  1.00  0.00    +0.068 A 
ATOM      6 Cl   UNL     1     -11.295  -0.629  -9.228  1.00  0.00    -0.082 Cl
ATOM      7  C   UNL     1     -11.793   1.077 -11.244  1.00  0.00    +0.069 A 
ENDROOT
BRANCH   1   8
ATOM      8  O   UNL     1     -11.998   2.536 -13.082  1.00  0.00    -0.457 OA
BRANCH   8   9
ATOM      9  C   UNL     1     -11.019   1.835 -13.756  1.00  0.00    +0.138 A 
ATOM     10  C   UNL     1      -8.797   3.654 -16.839  1.00  0.00    +0.162 A 
ATOM     11  C   UNL     1      -8.610   2.314 -16.481  1.00  0.00    +0.079 A 
ATOM     12  C   UNL     1      -9.755   4.425 -16.160  1.00  0.00    +0.161 A 
ATOM     13  C   UNL     1      -9.345   1.714 -15.468  1.00  0.00    +0.078 A 
ATOM     14  C   UNL     1     -10.501   3.835 -15.138  1.00  0.00    +0.064 A 
ATOM     15  N   UNL     1      -9.111   0.421 -15.182  1.00  0.00    -0.256 NA
ATOM     16  C   UNL     1     -10.303   2.481 -14.783  1.00  0.00    +0.047 A 
ATOM     17  C   UNL     1      -9.836  -0.164 -14.203  1.00  0.00    +0.115 A 
ATOM     18  C   UNL     1     -10.801   0.491 -13.470  1.00  0.00    +0.068 A 
BRANCH  10  19
ATOM     19  O   UNL     1      -8.099   4.298 -17.833  1.00  0.00    -0.493 OA
ATOM     20  C   UNL     1      -6.689   4.396 -17.690  1.00  0.00    +0.278 C 
ENDBRANCH  10  19
BRANCH  12  21
ATOM     21  O   UNL     1      -9.884   5.729 -16.564  1.00  0.00    -0.493 OA
ATOM     22  C   UNL     1     -11.072   6.097 -17.248  1.00  0.00    +0.278 C 
ENDBRANCH  12  21
ENDBRANCH   8   9
ENDBRANCH   1   8
BRANCH   4  23
ATOM     23  N   UNL     1     -14.202  -0.218  -8.726  1.00  0.00    -0.306 N 
ATOM     24  C   UNL     1     -14.691  -1.518  -8.712  1.00  0.00    +0.324 C 
ATOM     25  O   UNL     1     -14.836  -2.211  -9.709  1.00  0.00    -0.248 OA
ATOM     26  N   UNL     1     -14.981  -1.904  -7.415  1.00  0.00    -0.289 N 
ATOM     27  H   UNL     1     -14.347   0.333  -7.891  1.00  0.00    +0.171 HD
ATOM     28  H   UNL     1     -14.654  -1.328  -6.658  1.00  0.00    +0.173 HD
BRANCH  26  29
ATOM     29  C   UNL     1     -15.553  -3.111  -7.061  1.00  0.00    +0.177 A 
ATOM     30  C   UNL     1     -14.821  -4.322  -6.969  1.00  0.00    +0.095 A 
ATOM     31  N   UNL     1     -16.835  -3.317  -6.745  1.00  0.00    -0.062 NA
ATOM     32  C   UNL     1     -15.746  -5.262  -6.587  1.00  0.00    +0.135 A 
ATOM     33  O   UNL     1     -16.956  -4.660  -6.452  1.00  0.00    -0.360 OA
ATOM     34  C   UNL     1     -15.698  -6.707  -6.308  1.00  0.00    +0.091 C 
ENDBRANCH  26  29
ENDBRANCH   4  23
TORSDOF 6
ENDMDL
MODEL 7
REMARK VINA RESULT:    -8.814      6.195     10.946
REMARK INTER + INTRA:         -11.505
REMARK INTER:                 -10.645
REMARK INTRA:                  -0.860
REMARK UNBOUND:                 0.401
REMARK SMILES COc1cc2nccc(Oc3ccc(NC(=O)Nc4cc(C)on4)c(Cl)c3)c2cc1OC
REMARK SMILES IDX 11 1 12 2 13 3 14 4 25 5 26 6 27 7 10 8 9 9 3 10 4 11 30 12
REMARK SMILES IDX 5 13 29 14 6 15 28 16 7 17 8 18 2 19 1 20 31 21 32 22 15 23
REMARK SMILES IDX 16 24 17 25 18 26 19 29 20 30 24 31 21 32 23 33 22 34
REMARK H PARENT 15 27 18 28
ROOT
ATOM      1  C   UNL     1      -8.114   0.025 -14.907  1.00  0.00    +0.129 A 
ATOM      2  C   UNL     1      -7.965   0.338 -16.258  1.00  0.00    +0.049 A 
ATOM      3  C   UNL     1      -8.516   1.519 -16.772  1.00  0.00    +0.031 A 
ATOM      4  C   UNL     1      -9.227   2.392 -15.945  1.00  0.00    +0.061 A 
ATOM      5  C   UNL     1      -9.394   2.043 -14.590  1.00  0.00    +0.068 A 
ATOM      6 Cl   UNL     1     -10.287   3.065 -13.513  1.00  0.00    -0.082 Cl
ATOM      7  C   UNL     1      -8.845   0.868 -14.074  1.00  0.00    +0.069 A 
ENDROOT
BRANCH   1   8
ATOM      8  O   UNL     1      -7.627  -1.131 -14.336  1.00  0.00    -0.457 OA
BRANCH   8   9
ATOM      9  C   UNL     1      -6.611  -1.002 -13.412  1.00  0.00    +0.138 A 
ATOM     10  C   UNL     1      -7.269  -1.872  -9.342  1.00  0.00    +0.162 A 
ATOM     11  C   UNL     1      -6.036  -1.403  -9.811  1.00  0.00    +0.079 A 
ATOM     12  C   UNL     1      -8.328  -2.057 -10.246  1.00  0.00    +0.161 A 
ATOM     13  C   UNL     1      -5.821  -1.113 -11.151  1.00  0.00    +0.078 A 
ATOM     14  C   UNL     1      -8.125  -1.770 -11.597  1.00  0.00    +0.064 A 
ATOM     15  N   UNL     1      -4.610  -0.664 -11.526  1.00  0.00    -0.256 NA
ATOM     16  C   UNL     1      -6.876  -1.299 -12.060  1.00  0.00    +0.047 A 
ATOM     17  C   UNL     1      -4.407  -0.371 -12.829  1.00  0.00    +0.115 A 
ATOM     18  C   UNL     1      -5.369  -0.513 -13.805  1.00  0.00    +0.068 A 
BRANCH  10  19
ATOM     19  O   UNL     1      -7.537  -2.173  -8.028  1.00  0.00    -0.493 OA
ATOM     20  C   UNL     1      -7.280  -1.170  -7.056  1.00  0.00    +0.278 C 
ENDBRANCH  10  19
BRANCH  12  21
ATOM     21  O   UNL     1      -9.506  -2.519  -9.716  1.00  0.00    -0.493 OA
ATOM     22  C   UNL     1     -10.692  -2.325 -10.470  1.00  0.00    +0.278 C 
ENDBRANCH  12  21
ENDBRANCH   8   9
ENDBRANCH   1   8
BRANCH   4  23
ATOM     23  N   UNL     1      -9.813   3.597 -16.405  1.00  0.00    -0.306 N 
ATOM     24  C   UNL     1      -9.338   4.454 -17.388  1.00  0.00    +0.324 C 
ATOM     25  O   UNL     1      -8.268   4.317 -17.964  1.00  0.00    -0.248 OA
ATOM     26  N   UNL     1     -10.251   5.469 -17.617  1.00  0.00    -0.289 N 
ATOM     27  H   UNL     1     -10.582   3.932 -15.839  1.00  0.00    +0.171 HD
ATOM     28  H   UNL     1     -11.171   5.384 -17.224  1.00  0.00    +0.173 HD
BRANCH  26  29
ATOM     29  C   UNL     1     -10.049   6.529 -18.482  1.00  0.00    +0.177 A 
ATOM     30  C   UNL     1      -9.411   7.736 -18.098  1.00  0.00    +0.095 A 
ATOM     31  N   UNL     1     -10.395   6.575 -19.771  1.00  0.00    -0.062 NA
ATOM     32  C   UNL     1      -9.406   8.505 -19.235  1.00  0.00    +0.135 A 
ATOM     33  O   UNL     1      -9.996   7.810 -20.240  1.00  0.00    -0.360 OA
ATOM     34  C   UNL     1      -8.917   9.853 -19.569  1.00  0.00    +0.091 C 
ENDBRANCH  26  29
ENDBRANCH   4  23
TORSDOF 6
ENDMDL
MODEL 8
REMARK VINA RESULT:    -8.744      2.944     11.121
REMARK INTER + INTRA:         -11.411
REMARK INTER:                 -11.118
REMARK INTRA:                  -0.292
REMARK UNBOUND:                 0.401
REMARK SMILES COc1cc2nccc(Oc3ccc(NC(=O)Nc4cc(C)on4)c(Cl)c3)c2cc1OC
REMARK SMILES IDX 11 1 12 2 13 3 14 4 25 5 26 6 27 7 10 8 9 9 3 10 4 11 30 12
REMARK SMILES IDX 5 13 29 14 6 15 28 16 7 17 8 18 2 19 1 20 31 21 32 22 15 23
REMARK SMILES IDX 16 24 17 25 18 26 19 29 20 30 24 31 21 32 23 33 22 34
REMARK H PARENT 15 27 18 28
ROOT
ATOM      1  C   UNL     1     -12.556   1.091 -10.967  1.00  0.00    +0.129 A 
ATOM      2  C   UNL     1     -13.369   1.954 -11.701  1.00  0.00    +0.049 A 
ATOM      3  C   UNL     1     -12.915   2.486 -12.916  1.00  0.00    +0.031 A 
ATOM      4  C   UNL     1     -11.644   2.168 -13.402  1.00  0.00    +0.061 A 
ATOM      5  C   UNL     1     -10.826   1.320 -12.630  1.00  0.00    +0.068 A 
ATOM      6 Cl   UNL     1      -9.228   0.905 -13.158  1.00  0.00    -0.082 Cl
ATOM      7  C   UNL     1     -11.275   0.786 -11.420  1.00  0.00    +0.069 A 
ENDROOT
BRANCH   1   8
ATOM      8  O   UNL     1     -12.920   0.553  -9.752  1.00  0.00    -0.457 OA
BRANCH   8   9
ATOM      9  C   UNL     1     -13.349  -0.759  -9.742  1.00  0.00    +0.138 A 
ATOM     10  C   UNL     1     -16.747  -1.905  -7.531  1.00  0.00    +0.162 A 
ATOM     11  C   UNL     1     -15.982  -2.831  -8.248  1.00  0.00    +0.079 A 
ATOM     12  C   UNL     1     -16.378  -0.550  -7.537  1.00  0.00    +0.161 A 
ATOM     13  C   UNL     1     -14.861  -2.454  -8.974  1.00  0.00    +0.078 A 
ATOM     14  C   UNL     1     -15.253  -0.156  -8.262  1.00  0.00    +0.064 A 
ATOM     15  N   UNL     1     -14.173  -3.402  -9.636  1.00  0.00    -0.256 NA
ATOM     16  C   UNL     1     -14.488  -1.099  -8.985  1.00  0.00    +0.047 A 
ATOM     17  C   UNL     1     -13.075  -3.033 -10.332  1.00  0.00    +0.115 A 
ATOM     18  C   UNL     1     -12.618  -1.736 -10.410  1.00  0.00    +0.068 A 
BRANCH  10  19
ATOM     19  O   UNL     1     -17.865  -2.223  -6.797  1.00  0.00    -0.493 OA
ATOM     20  C   UNL     1     -17.705  -3.123  -5.709  1.00  0.00    +0.278 C 
ENDBRANCH  10  19
BRANCH  12  21
ATOM     21  O   UNL     1     -17.174   0.300  -6.812  1.00  0.00    -0.493 OA
ATOM     22  C   UNL     1     -18.190   1.009  -7.506  1.00  0.00    +0.278 C 
ENDBRANCH  12  21
ENDBRANCH   8   9
ENDBRANCH   1   8
BRANCH   4  23
ATOM     23  N   UNL     1     -11.126   2.677 -14.617  1.00  0.00    -0.306 N 
ATOM     24  C   UNL     1     -11.015   4.006 -15.007  1.00  0.00    +0.324 C 
ATOM     25  O   UNL     1     -11.435   4.952 -14.356  1.00  0.00    -0.248 OA
ATOM     26  N   UNL     1     -10.362   4.093 -16.224  1.00  0.00    -0.289 N 
ATOM     27  H   UNL     1     -10.961   1.978 -15.329  1.00  0.00    +0.171 HD
ATOM     28  H   UNL     1      -9.900   3.275 -16.580  1.00  0.00    +0.173 HD
BRANCH  26  29
ATOM     29  C   UNL     1     -10.156   5.266 -16.925  1.00  0.00    +0.177 A 
ATOM     30  C   UNL     1     -10.578   5.456 -18.265  1.00  0.00    +0.095 A 
ATOM     31  N   UNL     1      -9.565   6.371 -16.462  1.00  0.00    -0.062 NA
ATOM     32  C   UNL     1     -10.195   6.738 -18.574  1.00  0.00    +0.135 A 
ATOM     33  O   UNL     1      -9.587   7.289 -17.493  1.00  0.00    -0.360 OA
ATOM     34  C   UNL     1     -10.304   7.590 -19.770  1.00  0.00    +0.091 C 
ENDBRANCH  26  29
ENDBRANCH   4  23
TORSDOF 6
ENDMDL
MODEL 9
REMARK VINA RESULT:    -8.705      6.783      9.510
REMARK INTER + INTRA:         -11.357
REMARK INTER:                 -11.020
REMARK INTRA:                  -0.337
REMARK UNBOUND:                 0.401
REMARK SMILES COc1cc2nccc(Oc3ccc(NC(=O)Nc4cc(C)on4)c(Cl)c3)c2cc1OC
REMARK SMILES IDX 11 1 12 2 13 3 14 4 25 5 26 6 27 7 10 8 9 9 3 10 4 11 30 12
REMARK SMILES IDX 5 13 29 14 6 15 28 16 7 17 8 18 2 19 1 20 31 21 32 22 15 23
REMARK SMILES IDX 16 24 17 25 18 26 19 29 20 30 24 31 21 32 23 33 22 34
REMARK H PARENT 15 27 18 28
ROOT
ATOM      1  C   UNL     1      -6.979   3.131 -17.710  1.00  0.00    +0.129 A 
ATOM      2  C   UNL     1      -6.263   3.849 -16.752  1.00  0.00    +0.049 A 
ATOM      3  C   UNL     1      -5.477   3.174 -15.809  1.00  0.00    +0.031 A 
ATOM      4  C   UNL     1      -5.408   1.779 -15.806  1.00  0.00    +0.061 A 
ATOM      5  C   UNL     1      -6.164   1.071 -16.761  1.00  0.00    +0.068 A 
ATOM      6 Cl   UNL     1      -6.148  -0.662 -16.800  1.00  0.00    -0.082 Cl
ATOM      7  C   UNL     1      -6.947   1.739 -17.704  1.00  0.00    +0.069 A 
ENDROOT
BRANCH   1   8
ATOM      8  O   UNL     1      -7.796   3.722 -18.649  1.00  0.00    -0.457 OA
BRANCH   8   9
ATOM      9  C   UNL     1      -8.556   4.799 -18.241  1.00  0.00    +0.138 A 
ATOM     10  C   UNL     1     -11.262   4.440 -15.032  1.00  0.00    +0.162 A 
ATOM     11  C   UNL     1     -11.122   5.630 -15.755  1.00  0.00    +0.079 A 
ATOM     12  C   UNL     1     -10.485   3.323 -15.380  1.00  0.00    +0.161 A 
ATOM     13  C   UNL     1     -10.234   5.747 -16.815  1.00  0.00    +0.078 A 
ATOM     14  C   UNL     1      -9.586   3.426 -16.444  1.00  0.00    +0.064 A 
ATOM     15  N   UNL     1     -10.157   6.922 -17.465  1.00  0.00    -0.256 NA
ATOM     16  C   UNL     1      -9.451   4.633 -17.166  1.00  0.00    +0.047 A 
ATOM     17  C   UNL     1      -9.300   7.029 -18.503  1.00  0.00    +0.115 A 
ATOM     18  C   UNL     1      -8.488   6.003 -18.935  1.00  0.00    +0.068 A 
BRANCH  10  19
ATOM     19  O   UNL     1     -12.125   4.269 -13.976  1.00  0.00    -0.493 OA
ATOM     20  C   UNL     1     -13.518   4.334 -14.247  1.00  0.00    +0.278 C 
ENDBRANCH  10  19
BRANCH  12  21
ATOM     21  O   UNL     1     -10.674   2.192 -14.628  1.00  0.00    -0.493 OA
ATOM     22  C   UNL     1      -9.532   1.591 -14.036  1.00  0.00    +0.278 C 
ENDBRANCH  12  21
ENDBRANCH   8   9
ENDBRANCH   1   8
BRANCH   4  23
ATOM     23  N   UNL     1      -4.639   1.038 -14.876  1.00  0.00    -0.306 N 
ATOM     24  C   UNL     1      -5.053   0.498 -13.666  1.00  0.00    +0.324 C 
ATOM     25  O   UNL     1      -6.166   0.656 -13.185  1.00  0.00    -0.248 OA
ATOM     26  N   UNL     1      -4.030  -0.242 -13.099  1.00  0.00    -0.289 N 
ATOM     27  H   UNL     1      -3.644   1.042 -15.057  1.00  0.00    +0.171 HD
ATOM     28  H   UNL     1      -3.225  -0.457 -13.661  1.00  0.00    +0.173 HD
BRANCH  26  29
ATOM     29  C   UNL     1      -4.091  -0.850 -11.859  1.00  0.00    +0.177 A 
ATOM     30  C   UNL     1      -4.718  -2.102 -11.636  1.00  0.00    +0.095 A 
ATOM     31  N   UNL     1      -3.573  -0.380 -10.721  1.00  0.00    -0.062 NA
ATOM     32  C   UNL     1      -4.549  -2.344 -10.296  1.00  0.00    +0.135 A 
ATOM     33  O   UNL     1      -3.862  -1.312  -9.744  1.00  0.00    -0.360 OA
ATOM     34  C   UNL     1      -4.937  -3.434  -9.385  1.00  0.00    +0.091 C 
ENDBRANCH  26  29
ENDBRANCH   4  23
TORSDOF 6
ENDMDL
MODEL 10
REMARK VINA RESULT:    -8.611      2.303      3.430
REMARK INTER + INTRA:         -11.231
REMARK INTER:                 -10.169
REMARK INTRA:                  -1.062
REMARK UNBOUND:                 0.401
REMARK SMILES COc1cc2nccc(Oc3ccc(NC(=O)Nc4cc(C)on4)c(Cl)c3)c2cc1OC
REMARK SMILES IDX 11 1 12 2 13 3 14 4 25 5 26 6 27 7 10 8 9 9 3 10 4 11 30 12
REMARK SMILES IDX 5 13 29 14 6 15 28 16 7 17 8 18 2 19 1 20 31 21 32 22 15 23
REMARK SMILES IDX 16 24 17 25 18 26 19 29 20 30 24 31 21 32 23 33 22 34
REMARK H PARENT 15 27 18 28
ROOT
ATOM      1  C   UNL     1     -10.354  -0.162 -12.836  1.00  0.00    +0.129 A 
ATOM      2  C   UNL     1     -11.048   1.042 -12.712  1.00  0.00    +0.049 A 
ATOM      3  C   UNL     1     -11.860   1.275 -11.595  1.00  0.00    +0.031 A 
ATOM      4  C   UNL     1     -11.996   0.306 -10.598  1.00  0.00    +0.061 A 
ATOM      5  C   UNL     1     -11.313  -0.916 -10.756  1.00  0.00    +0.068 A 
ATOM      6 Cl   UNL     1     -11.455  -2.174  -9.573  1.00  0.00    -0.082 Cl
ATOM      7  C   UNL     1     -10.500  -1.152 -11.867  1.00  0.00    +0.069 A 
ENDROOT
BRANCH   1   8
ATOM      8  O   UNL     1      -9.561  -0.475 -13.919  1.00  0.00    -0.457 OA
BRANCH   8   9
ATOM      9  C   UNL     1      -8.243  -0.071 -13.876  1.00  0.00    +0.138 A 
ATOM     10  C   UNL     1      -6.896   3.162 -16.218  1.00  0.00    +0.162 A 
ATOM     11  C   UNL     1      -6.030   2.427 -15.401  1.00  0.00    +0.079 A 
ATOM     12  C   UNL     1      -8.257   2.819 -16.271  1.00  0.00    +0.161 A 
ATOM     13  C   UNL     1      -6.473   1.360 -14.632  1.00  0.00    +0.078 A 
ATOM     14  C   UNL     1      -8.717   1.748 -15.502  1.00  0.00    +0.064 A 
ATOM     15  N   UNL     1      -5.581   0.697 -13.874  1.00  0.00    -0.256 NA
ATOM     16  C   UNL     1      -7.834   1.012 -14.679  1.00  0.00    +0.047 A 
ATOM     17  C   UNL     1      -6.013  -0.348 -13.135  1.00  0.00    +0.115 A 
ATOM     18  C   UNL     1      -7.322  -0.777 -13.107  1.00  0.00    +0.068 A 
BRANCH  10  19
ATOM     19  O   UNL     1      -6.512   4.226 -16.999  1.00  0.00    -0.493 OA
ATOM     20  C   UNL     1      -5.151   4.629 -16.939  1.00  0.00    +0.278 C 
ENDBRANCH  10  19
BRANCH  12  21
ATOM     21  O   UNL     1      -9.046   3.583 -17.092  1.00  0.00    -0.493 OA
ATOM     22  C   UNL     1      -9.979   4.462 -16.483  1.00  0.00    +0.278 C 
ENDBRANCH  12  21
ENDBRANCH   8   9
ENDBRANCH   1   8
BRANCH   4  23
ATOM     23  N   UNL     1     -12.805   0.478  -9.449  1.00  0.00    -0.306 N 
ATOM     24  C   UNL     1     -14.141   0.131  -9.288  1.00  0.00    +0.324 C 
ATOM     25  O   UNL     1     -14.847  -0.322 -10.177  1.00  0.00    -0.248 OA
ATOM     26  N   UNL     1     -14.541   0.369  -7.984  1.00  0.00    -0.289 N 
ATOM     27  H   UNL     1     -12.393   1.055  -8.728  1.00  0.00    +0.171 HD
ATOM     28  H   UNL     1     -13.837   0.567  -7.295  1.00  0.00    +0.173 HD
BRANCH  26  29
ATOM     29  C   UNL     1     -15.829   0.201  -7.513  1.00  0.00    +0.177 A 
ATOM     30  C   UNL     1     -16.303  -1.017  -6.960  1.00  0.00    +0.095 A 
ATOM     31  N   UNL     1     -16.790   1.128  -7.487  1.00  0.00    -0.062 NA
ATOM     32  C   UNL     1     -17.605  -0.759  -6.613  1.00  0.00    +0.135 A 
ATOM     33  O   UNL     1     -17.900   0.528  -6.928  1.00  0.00    -0.360 OA
ATOM     34  C   UNL     1     -18.688  -1.548  -6.001  1.00  0.00    +0.091 C 
ENDBRANCH  26  29
ENDBRANCH   4  23
TORSDOF 6
ENDMDL
