MODEL 1
REMARK VINA RESULT:   -10.445      0.000      0.000
REMARK INTER + INTRA:         -14.897
REMARK INTER:                 -13.803
REMARK INTRA:                  -1.095
REMARK UNBOUND:                -1.095
REMARK SMILES CC1(COc2ccc3c(c2)ncn3-c2ccc3cccc(N4CCC(N)CC4)c3n2)COC1
REMARK SMILES IDX 5 1 6 2 7 3 8 4 9 5 10 6 11 7 12 8 13 9 4 10 3 11 2 12 31 13
REMARK SMILES IDX 33 14 32 15 1 16 14 17 15 18 30 19 16 20 29 21 17 22 21 23
REMARK SMILES IDX 18 24 20 25 19 26 22 27 23 28 28 29 24 30 27 31 25 32 26 33
REMARK H PARENT 26 34 26 35
ROOT
ATOM      1  C   UNL     1     -12.567   1.110 -11.197  1.00  0.00    +0.121 A 
ATOM      2  C   UNL     1     -11.345   1.078 -11.869  1.00  0.00    +0.049 A 
ATOM      3  C   UNL     1     -11.069   1.926 -12.950  1.00  0.00    +0.033 A 
ATOM      4  C   UNL     1     -12.061   2.840 -13.336  1.00  0.00    +0.075 A 
ATOM      5  C   UNL     1     -13.308   2.850 -12.702  1.00  0.00    +0.093 A 
ATOM      6  C   UNL     1     -13.563   1.993 -11.617  1.00  0.00    +0.077 A 
ATOM      7  N   UNL     1     -14.166   3.737 -13.289  1.00  0.00    -0.236 NA
ATOM      8  C   UNL     1     -13.478   4.267 -14.272  1.00  0.00    +0.206 A 
ATOM      9  N   UNL     1     -12.171   3.821 -14.319  1.00  0.00    -0.283 N 
ENDROOT
BRANCH   1  10
ATOM     10  O   UNL     1     -12.671   0.218 -10.164  1.00  0.00    -0.493 OA
BRANCH  10  11
ATOM     11  C   UNL     1     -13.981  -0.242  -9.827  1.00  0.00    +0.241 C 
BRANCH  11  12
ATOM     12  C   UNL     1     -14.300   0.118  -8.377  1.00  0.00    +0.048 C 
ATOM     13  C   UNL     1     -15.341  -0.763  -7.659  1.00  0.00    +0.172 C 
ATOM     14  C   UNL     1     -15.341   1.235  -8.155  1.00  0.00    +0.172 C 
ATOM     15  O   UNL     1     -16.047   0.415  -7.185  1.00  0.00    -0.380 OA
ATOM     16  C   UNL     1     -13.024   0.321  -7.557  1.00  0.00    +0.020 C 
ENDBRANCH  11  12
ENDBRANCH  10  11
ENDBRANCH   1  10
BRANCH   9  17
ATOM     17  C   UNL     1     -11.211   4.346 -15.234  1.00  0.00    +0.139 A 
ATOM     18  C   UNL     1     -11.421   5.532 -15.911  1.00  0.00    +0.048 A 
ATOM     19  N   UNL     1     -10.098   3.593 -15.436  1.00  0.00    -0.228 NA
ATOM     20  C   UNL     1     -10.440   5.972 -16.796  1.00  0.00    +0.014 A 
ATOM     21  C   UNL     1      -9.127   4.009 -16.288  1.00  0.00    +0.096 A 
ATOM     22  C   UNL     1      -9.278   5.219 -16.997  1.00  0.00    +0.002 A 
ATOM     23  C   UNL     1      -7.946   3.255 -16.509  1.00  0.00    +0.063 A 
ATOM     24  C   UNL     1      -8.293   5.660 -17.896  1.00  0.00    +0.010 A 
ATOM     25  C   UNL     1      -6.977   3.711 -17.421  1.00  0.00    +0.028 A 
ATOM     26  C   UNL     1      -7.145   4.906 -18.110  1.00  0.00    +0.003 A 
BRANCH  23  27
ATOM     27  N   UNL     1      -7.648   2.018 -15.867  1.00  0.00    -0.370 N 
ATOM     28  C   UNL     1      -6.221   1.928 -15.501  1.00  0.00    +0.118 C 
ATOM     29  C   UNL     1      -8.151   0.842 -16.586  1.00  0.00    +0.118 C 
ATOM     30  C   UNL     1      -5.836   0.491 -15.125  1.00  0.00    +0.040 C 
ATOM     31  C   UNL     1      -8.166  -0.352 -15.624  1.00  0.00    +0.040 C 
ATOM     32  C   UNL     1      -7.042  -0.272 -14.579  1.00  0.00    +0.054 C 
BRANCH  32  33
ATOM     33  N   UNL     1      -6.661  -1.620 -14.143  1.00  0.00    -0.328 NA
ATOM     34  H   UNL     1      -6.255  -1.574 -13.209  1.00  0.00    +0.119 HD
ATOM     35  H   UNL     1      -7.497  -2.198 -14.062  1.00  0.00    +0.119 HD
ENDBRANCH  32  33
ENDBRANCH  23  27
ENDBRANCH   9  17
TORSDOF 6
ENDMDL
MODEL 2
REMARK VINA RESULT:   -10.437      1.444      2.149
REMARK INTER + INTRA:         -14.887
REMARK INTER:                 -13.675
REMARK INTRA:                  -1.212
REMARK UNBOUND:                -1.095
REMARK SMILES CC1(COc2ccc3c(c2)ncn3-c2ccc3cccc(N4CCC(N)CC4)c3n2)COC1
REMARK SMILES IDX 5 1 6 2 7 3 8 4 9 5 10 6 11 7 12 8 13 9 4 10 3 11 2 12 31 13
REMARK SMILES IDX 33 14 32 15 1 16 14 17 15 18 30 19 16 20 29 21 17 22 21 23
REMARK SMILES IDX 18 24 20 25 19 26 22 27 23 28 28 29 24 30 27 31 25 32 26 33
REMARK H PARENT 26 34 26 35
ROOT
ATOM      1  C   UNL     1     -12.594   1.116 -11.212  1.00  0.00    +0.121 A 
ATOM      2  C   UNL     1     -11.370   1.081 -11.880  1.00  0.00    +0.049 A 
ATOM      3  C   UNL     1     -11.088   1.929 -12.960  1.00  0.00    +0.033 A 
ATOM      4  C   UNL     1     -12.077   2.846 -13.349  1.00  0.00    +0.075 A 
ATOM      5  C   UNL     1     -13.326   2.858 -12.719  1.00  0.00    +0.093 A 
ATOM      6  C   UNL     1     -13.586   2.001 -11.635  1.00  0.00    +0.077 A 
ATOM      7  N   UNL     1     -14.180   3.748 -13.308  1.00  0.00    -0.236 NA
ATOM      8  C   UNL     1     -13.487   4.276 -14.289  1.00  0.00    +0.206 A 
ATOM      9  N   UNL     1     -12.182   3.828 -14.332  1.00  0.00    -0.283 N 
ENDROOT
BRANCH   1  10
ATOM     10  O   UNL     1     -12.703   0.224 -10.180  1.00  0.00    -0.493 OA
BRANCH  10  11
ATOM     11  C   UNL     1     -11.591  -0.642  -9.945  1.00  0.00    +0.241 C 
BRANCH  11  12
ATOM     12  C   UNL     1     -12.032  -2.099 -10.075  1.00  0.00    +0.048 C 
ATOM     13  C   UNL     1     -11.188  -3.147  -9.322  1.00  0.00    +0.172 C 
ATOM     14  C   UNL     1     -11.551  -2.858 -11.328  1.00  0.00    +0.172 C 
ATOM     15  O   UNL     1     -11.118  -3.979 -10.511  1.00  0.00    -0.380 OA
ATOM     16  C   UNL     1     -13.534  -2.253  -9.825  1.00  0.00    +0.020 C 
ENDBRANCH  11  12
ENDBRANCH  10  11
ENDBRANCH   1  10
BRANCH   9  17
ATOM     17  C   UNL     1     -11.217   4.350 -15.243  1.00  0.00    +0.139 A 
ATOM     18  C   UNL     1     -11.419   5.541 -15.915  1.00  0.00    +0.048 A 
ATOM     19  N   UNL     1     -10.108   3.591 -15.448  1.00  0.00    -0.228 NA
ATOM     20  C   UNL     1     -10.435   5.979 -16.797  1.00  0.00    +0.014 A 
ATOM     21  C   UNL     1      -9.134   4.006 -16.296  1.00  0.00    +0.096 A 
ATOM     22  C   UNL     1      -9.277   5.220 -17.000  1.00  0.00    +0.002 A 
ATOM     23  C   UNL     1      -7.958   3.245 -16.519  1.00  0.00    +0.063 A 
ATOM     24  C   UNL     1      -8.288   5.659 -17.896  1.00  0.00    +0.010 A 
ATOM     25  C   UNL     1      -6.985   3.700 -17.429  1.00  0.00    +0.028 A 
ATOM     26  C   UNL     1      -7.145   4.899 -18.112  1.00  0.00    +0.003 A 
BRANCH  23  27
ATOM     27  N   UNL     1      -7.668   2.003 -15.883  1.00  0.00    -0.370 N 
ATOM     28  C   UNL     1      -6.243   1.905 -15.513  1.00  0.00    +0.118 C 
ATOM     29  C   UNL     1      -8.175   0.834 -16.609  1.00  0.00    +0.118 C 
ATOM     30  C   UNL     1      -5.866   0.463 -15.143  1.00  0.00    +0.040 C 
ATOM     31  C   UNL     1      -8.199  -0.365 -15.653  1.00  0.00    +0.040 C 
ATOM     32  C   UNL     1      -7.078  -0.296 -14.604  1.00  0.00    +0.054 C 
BRANCH  32  33
ATOM     33  N   UNL     1      -6.705  -1.648 -14.174  1.00  0.00    -0.328 NA
ATOM     34  H   UNL     1      -6.720  -1.698 -13.156  1.00  0.00    +0.119 HD
ATOM     35  H   UNL     1      -7.405  -2.312 -14.503  1.00  0.00    +0.119 HD
ENDBRANCH  32  33
ENDBRANCH  23  27
ENDBRANCH   9  17
TORSDOF 6
ENDMDL
MODEL 3
REMARK VINA RESULT:    -9.859      1.401      1.852
REMARK INTER + INTRA:         -14.124
REMARK INTER:                 -13.397
REMARK INTRA:                  -0.727
REMARK UNBOUND:                -1.095
REMARK SMILES CC1(COc2ccc3c(c2)ncn3-c2ccc3cccc(N4CCC(N)CC4)c3n2)COC1
REMARK SMILES IDX 5 1 6 2 7 3 8 4 9 5 10 6 11 7 12 8 13 9 4 10 3 11 2 12 31 13
REMARK SMILES IDX 33 14 32 15 1 16 14 17 15 18 30 19 16 20 29 21 17 22 21 23
REMARK SMILES IDX 18 24 20 25 19 26 22 27 23 28 28 29 24 30 27 31 25 32 26 33
REMARK H PARENT 26 34 26 35
ROOT
ATOM      1  C   UNL     1     -12.370   1.111 -11.332  1.00  0.00    +0.121 A 
ATOM      2  C   UNL     1     -11.186   1.125 -12.069  1.00  0.00    +0.049 A 
ATOM      3  C   UNL     1     -10.985   2.011 -13.136  1.00  0.00    +0.033 A 
ATOM      4  C   UNL     1     -12.014   2.916 -13.440  1.00  0.00    +0.075 A 
ATOM      5  C   UNL     1     -13.225   2.880 -12.740  1.00  0.00    +0.093 A 
ATOM      6  C   UNL     1     -13.404   1.985 -11.670  1.00  0.00    +0.077 A 
ATOM      7  N   UNL     1     -14.130   3.766 -13.252  1.00  0.00    -0.236 NA
ATOM      8  C   UNL     1     -13.507   4.340 -14.253  1.00  0.00    +0.206 A 
ATOM      9  N   UNL     1     -12.196   3.924 -14.384  1.00  0.00    -0.283 N 
ENDROOT
BRANCH   1  10
ATOM     10  O   UNL     1     -12.400   0.187 -10.323  1.00  0.00    -0.493 OA
BRANCH  10  11
ATOM     11  C   UNL     1     -11.627  -1.002 -10.503  1.00  0.00    +0.241 C 
BRANCH  11  12
ATOM     12  C   UNL     1     -12.312  -2.177  -9.808  1.00  0.00    +0.048 C 
ATOM     13  C   UNL     1     -13.854  -2.177  -9.810  1.00  0.00    +0.172 C 
ATOM     14  C   UNL     1     -12.482  -2.071  -8.278  1.00  0.00    +0.172 C 
ATOM     15  O   UNL     1     -13.880  -2.456  -8.384  1.00  0.00    -0.380 OA
ATOM     16  C   UNL     1     -11.715  -3.514 -10.250  1.00  0.00    +0.020 C 
ENDBRANCH  11  12
ENDBRANCH  10  11
ENDBRANCH   1  10
BRANCH   9  17
ATOM     17  C   UNL     1     -11.297   4.495 -15.332  1.00  0.00    +0.139 A 
ATOM     18  C   UNL     1     -11.571   5.692 -15.967  1.00  0.00    +0.048 A 
ATOM     19  N   UNL     1     -10.177   3.777 -15.609  1.00  0.00    -0.228 NA
ATOM     20  C   UNL     1     -10.648   6.180 -16.888  1.00  0.00    +0.014 A 
ATOM     21  C   UNL     1      -9.262   4.241 -16.497  1.00  0.00    +0.096 A 
ATOM     22  C   UNL     1      -9.479   5.463 -17.167  1.00  0.00    +0.002 A 
ATOM     23  C   UNL     1      -8.076   3.523 -16.797  1.00  0.00    +0.063 A 
ATOM     24  C   UNL     1      -8.552   5.952 -18.103  1.00  0.00    +0.010 A 
ATOM     25  C   UNL     1      -7.166   4.028 -17.745  1.00  0.00    +0.028 A 
ATOM     26  C   UNL     1      -7.399   5.234 -18.393  1.00  0.00    +0.003 A 
BRANCH  23  27
ATOM     27  N   UNL     1      -7.714   2.279 -16.204  1.00  0.00    -0.370 N 
ATOM     28  C   UNL     1      -8.599   1.187 -16.652  1.00  0.00    +0.118 C 
ATOM     29  C   UNL     1      -7.543   2.345 -14.748  1.00  0.00    +0.118 C 
ATOM     30  C   UNL     1      -8.428  -0.060 -15.773  1.00  0.00    +0.040 C 
ATOM     31  C   UNL     1      -6.751   1.114 -14.291  1.00  0.00    +0.040 C 
ATOM     32  C   UNL     1      -7.025  -0.115 -15.172  1.00  0.00    +0.054 C 
BRANCH  32  33
ATOM     33  N   UNL     1      -6.831  -1.346 -14.397  1.00  0.00    -0.328 NA
ATOM     34  H   UNL     1      -7.166  -2.144 -14.936  1.00  0.00    +0.119 HD
ATOM     35  H   UNL     1      -5.833  -1.499 -14.251  1.00  0.00    +0.119 HD
ENDBRANCH  32  33
ENDBRANCH  23  27
ENDBRANCH   9  17
TORSDOF 6
ENDMDL
MODEL 4
REMARK VINA RESULT:    -9.327      4.831      9.798
REMARK INTER + INTRA:         -13.420
REMARK INTER:                 -12.112
REMARK INTRA:                  -1.309
REMARK UNBOUND:                -1.095
REMARK SMILES CC1(COc2ccc3c(c2)ncn3-c2ccc3cccc(N4CCC(N)CC4)c3n2)COC1
REMARK SMILES IDX 5 1 6 2 7 3 8 4 9 5 10 6 11 7 12 8 13 9 4 10 3 11 2 12 31 13
REMARK SMILES IDX 33 14 32 15 1 16 14 17 15 18 30 19 16 20 29 21 17 22 21 23
REMARK SMILES IDX 18 24 20 25 19 26 22 27 23 28 28 29 24 30 27 31 25 32 26 33
REMARK H PARENT 26 34 26 35
ROOT
ATOM      1  C   UNL     1      -4.913   0.570 -17.504  1.00  0.00    +0.121 A 
ATOM      2  C   UNL     1      -6.282   0.383 -17.693  1.00  0.00    +0.049 A 
ATOM      3  C   UNL     1      -7.235   0.962 -16.844  1.00  0.00    +0.033 A 
ATOM      4  C   UNL     1      -6.772   1.766 -15.791  1.00  0.00    +0.075 A 
ATOM      5  C   UNL     1      -5.401   1.922 -15.562  1.00  0.00    +0.093 A 
ATOM      6  C   UNL     1      -4.462   1.335 -16.429  1.00  0.00    +0.077 A 
ATOM      7  N   UNL     1      -5.158   2.653 -14.433  1.00  0.00    -0.236 NA
ATOM      8  C   UNL     1      -6.346   2.944 -13.961  1.00  0.00    +0.206 A 
ATOM      9  N   UNL     1      -7.374   2.497 -14.769  1.00  0.00    -0.283 N 
ENDROOT
BRANCH   1  10
ATOM     10  O   UNL     1      -4.122  -0.063 -18.425  1.00  0.00    -0.493 OA
BRANCH  10  11
ATOM     11  C   UNL     1      -2.944  -0.710 -17.940  1.00  0.00    +0.241 C 
BRANCH  11  12
ATOM     12  C   UNL     1      -1.716  -0.169 -18.670  1.00  0.00    +0.048 C 
ATOM     13  C   UNL     1      -1.965   0.507 -20.033  1.00  0.00    +0.172 C 
ATOM     14  C   UNL     1      -0.909  -1.181 -19.509  1.00  0.00    +0.172 C 
ATOM     15  O   UNL     1      -0.895  -0.268 -20.639  1.00  0.00    -0.380 OA
ATOM     16  C   UNL     1      -0.837   0.671 -17.741  1.00  0.00    +0.020 C 
ENDBRANCH  11  12
ENDBRANCH  10  11
ENDBRANCH   1  10
BRANCH   9  17
ATOM     17  C   UNL     1      -8.744   2.797 -14.510  1.00  0.00    +0.139 A 
ATOM     18  C   UNL     1      -9.461   2.141 -13.528  1.00  0.00    +0.048 A 
ATOM     19  N   UNL     1      -9.318   3.733 -15.312  1.00  0.00    -0.228 NA
ATOM     20  C   UNL     1     -10.798   2.483 -13.343  1.00  0.00    +0.014 A 
ATOM     21  C   UNL     1     -10.616   4.086 -15.141  1.00  0.00    +0.096 A 
ATOM     22  C   UNL     1     -11.396   3.461 -14.145  1.00  0.00    +0.002 A 
ATOM     23  C   UNL     1     -11.240   5.070 -15.950  1.00  0.00    +0.063 A 
ATOM     24  C   UNL     1     -12.747   3.800 -13.964  1.00  0.00    +0.010 A 
ATOM     25  C   UNL     1     -12.598   5.386 -15.757  1.00  0.00    +0.028 A 
ATOM     26  C   UNL     1     -13.348   4.759 -14.770  1.00  0.00    +0.003 A 
BRANCH  23  27
ATOM     27  N   UNL     1     -10.587   5.790 -16.993  1.00  0.00    -0.370 N 
ATOM     28  C   UNL     1     -10.024   7.062 -16.502  1.00  0.00    +0.118 C 
ATOM     29  C   UNL     1     -11.392   5.928 -18.210  1.00  0.00    +0.118 C 
ATOM     30  C   UNL     1      -9.626   7.977 -17.668  1.00  0.00    +0.040 C 
ATOM     31  C   UNL     1     -10.466   6.310 -19.371  1.00  0.00    +0.040 C 
ATOM     32  C   UNL     1      -9.271   7.157 -18.908  1.00  0.00    +0.054 C 
BRANCH  32  33
ATOM     33  N   UNL     1      -8.811   8.023 -19.999  1.00  0.00    -0.328 NA
ATOM     34  H   UNL     1      -9.407   7.887 -20.816  1.00  0.00    +0.119 HD
ATOM     35  H   UNL     1      -8.922   8.999 -19.725  1.00  0.00    +0.119 HD
ENDBRANCH  32  33
ENDBRANCH  23  27
ENDBRANCH   9  17
TORSDOF 6
ENDMDL
MODEL 5
REMARK VINA RESULT:    -9.319      4.491      9.150
REMARK INTER + INTRA:         -13.410
REMARK INTER:                 -12.770
REMARK INTRA:                  -0.640
REMARK UNBOUND:                -1.095
REMARK SMILES CC1(COc2ccc3c(c2)ncn3-c2ccc3cccc(N4CCC(N)CC4)c3n2)COC1
REMARK SMILES IDX 5 1 6 2 7 3 8 4 9 5 10 6 11 7 12 8 13 9 4 10 3 11 2 12 31 13
REMARK SMILES IDX 33 14 32 15 1 16 14 17 15 18 30 19 16 20 29 21 17 22 21 23
REMARK SMILES IDX 18 24 20 25 19 26 22 27 23 28 28 29 24 30 27 31 25 32 26 33
REMARK H PARENT 26 34 26 35
ROOT
ATOM      1  C   UNL     1      -4.416  -2.023 -16.582  1.00  0.00    +0.121 A 
ATOM      2  C   UNL     1      -4.203  -0.867 -17.334  1.00  0.00    +0.049 A 
ATOM      3  C   UNL     1      -5.127   0.186 -17.356  1.00  0.00    +0.033 A 
ATOM      4  C   UNL     1      -6.285   0.059 -16.572  1.00  0.00    +0.075 A 
ATOM      5  C   UNL     1      -6.533  -1.115 -15.851  1.00  0.00    +0.093 A 
ATOM      6  C   UNL     1      -5.590  -2.158 -15.840  1.00  0.00    +0.077 A 
ATOM      7  N   UNL     1      -7.755  -1.082 -15.239  1.00  0.00    -0.236 NA
ATOM      8  C   UNL     1      -8.265   0.079 -15.573  1.00  0.00    +0.206 A 
ATOM      9  N   UNL     1      -7.402   0.853 -16.324  1.00  0.00    -0.283 N 
ENDROOT
BRANCH   1  10
ATOM     10  O   UNL     1      -3.413  -2.950 -16.670  1.00  0.00    -0.493 OA
BRANCH  10  11
ATOM     11  C   UNL     1      -3.685  -4.258 -16.162  1.00  0.00    +0.241 C 
BRANCH  11  12
ATOM     12  C   UNL     1      -2.587  -5.224 -16.600  1.00  0.00    +0.048 C 
ATOM     13  C   UNL     1      -1.603  -4.712 -17.670  1.00  0.00    +0.172 C 
ATOM     14  C   UNL     1      -2.966  -6.255 -17.683  1.00  0.00    +0.172 C 
ATOM     15  O   UNL     1      -1.768  -5.933 -18.441  1.00  0.00    -0.380 OA
ATOM     16  C   UNL     1      -1.884  -5.855 -15.397  1.00  0.00    +0.020 C 
ENDBRANCH  11  12
ENDBRANCH  10  11
ENDBRANCH   1  10
BRANCH   9  17
ATOM     17  C   UNL     1      -7.702   2.195 -16.703  1.00  0.00    +0.139 A 
ATOM     18  C   UNL     1      -6.876   2.917 -17.544  1.00  0.00    +0.048 A 
ATOM     19  N   UNL     1      -8.821   2.740 -16.157  1.00  0.00    -0.228 NA
ATOM     20  C   UNL     1      -7.232   4.226 -17.858  1.00  0.00    +0.014 A 
ATOM     21  C   UNL     1      -9.189   4.010 -16.459  1.00  0.00    +0.096 A 
ATOM     22  C   UNL     1      -8.394   4.792 -17.323  1.00  0.00    +0.002 A 
ATOM     23  C   UNL     1     -10.359   4.602 -15.918  1.00  0.00    +0.063 A 
ATOM     24  C   UNL     1      -8.748   6.115 -17.634  1.00  0.00    +0.010 A 
ATOM     25  C   UNL     1     -10.689   5.933 -16.237  1.00  0.00    +0.028 A 
ATOM     26  C   UNL     1      -9.893   6.686 -17.091  1.00  0.00    +0.003 A 
BRANCH  23  27
ATOM     27  N   UNL     1     -11.263   3.943 -15.036  1.00  0.00    -0.370 N 
ATOM     28  C   UNL     1     -12.556   4.651 -14.956  1.00  0.00    +0.118 C 
ATOM     29  C   UNL     1     -10.683   3.617 -13.729  1.00  0.00    +0.118 C 
ATOM     30  C   UNL     1     -13.391   4.143 -13.772  1.00  0.00    +0.040 C 
ATOM     31  C   UNL     1     -11.560   2.557 -13.052  1.00  0.00    +0.040 C 
ATOM     32  C   UNL     1     -13.041   2.694 -13.439  1.00  0.00    +0.054 C 
BRANCH  32  33
ATOM     33  N   UNL     1     -13.894   2.179 -12.362  1.00  0.00    -0.328 NA
ATOM     34  H   UNL     1     -14.529   2.913 -12.050  1.00  0.00    +0.119 HD
ATOM     35  H   UNL     1     -14.482   1.430 -12.726  1.00  0.00    +0.119 HD
ENDBRANCH  32  33
ENDBRANCH  23  27
ENDBRANCH   9  17
TORSDOF 6
ENDMDL
MODEL 6
REMARK VINA RESULT:    -9.267      3.470      7.928
REMARK INTER + INTRA:         -13.342
REMARK INTER:                 -12.674
REMARK INTRA:                  -0.668
REMARK UNBOUND:                -1.095
REMARK SMILES CC1(COc2ccc3c(c2)ncn3-c2ccc3cccc(N4CCC(N)CC4)c3n2)COC1
REMARK SMILES IDX 5 1 6 2 7 3 8 4 9 5 10 6 11 7 12 8 13 9 4 10 3 11 2 12 31 13
REMARK SMILES IDX 33 14 32 15 1 16 14 17 15 18 30 19 16 20 29 21 17 22 21 23
REMARK SMILES IDX 18 24 20 25 19 26 22 27 23 28 28 29 24 30 27 31 25 32 26 33
REMARK H PARENT 26 34 26 35
ROOT
ATOM      1  C   UNL     1     -11.268   5.603 -16.196  1.00  0.00    +0.121 A 
ATOM      2  C   UNL     1     -10.309   4.754 -15.644  1.00  0.00    +0.049 A 
ATOM      3  C   UNL     1     -10.625   3.831 -14.638  1.00  0.00    +0.033 A 
ATOM      4  C   UNL     1     -11.958   3.765 -14.204  1.00  0.00    +0.075 A 
ATOM      5  C   UNL     1     -12.919   4.644 -14.715  1.00  0.00    +0.093 A 
ATOM      6  C   UNL     1     -12.581   5.559 -15.728  1.00  0.00    +0.077 A 
ATOM      7  N   UNL     1     -14.126   4.489 -14.094  1.00  0.00    -0.236 NA
ATOM      8  C   UNL     1     -13.927   3.541 -13.209  1.00  0.00    +0.206 A 
ATOM      9  N   UNL     1     -12.655   3.007 -13.265  1.00  0.00    -0.283 N 
ENDROOT
BRANCH   1  10
ATOM     10  O   UNL     1     -10.792   6.440 -17.170  1.00  0.00    -0.493 OA
BRANCH  10  11
ATOM     11  C   UNL     1     -10.793   5.948 -18.511  1.00  0.00    +0.241 C 
BRANCH  11  12
ATOM     12  C   UNL     1      -9.728   6.674 -19.330  1.00  0.00    +0.048 C 
ATOM     13  C   UNL     1      -9.647   8.204 -19.158  1.00  0.00    +0.172 C 
ATOM     14  C   UNL     1     -10.096   7.026 -20.787  1.00  0.00    +0.172 C 
ATOM     15  O   UNL     1      -9.628   8.389 -20.600  1.00  0.00    -0.380 OA
ATOM     16  C   UNL     1      -8.365   5.989 -19.210  1.00  0.00    +0.020 C 
ENDBRANCH  11  12
ENDBRANCH  10  11
ENDBRANCH   1  10
BRANCH   9  17
ATOM     17  C   UNL     1     -12.251   1.892 -12.473  1.00  0.00    +0.139 A 
ATOM     18  C   UNL     1     -12.983   1.472 -11.378  1.00  0.00    +0.048 A 
ATOM     19  N   UNL     1     -11.085   1.290 -12.829  1.00  0.00    -0.228 NA
ATOM     20  C   UNL     1     -12.517   0.381 -10.649  1.00  0.00    +0.014 A 
ATOM     21  C   UNL     1     -10.621   0.221 -12.136  1.00  0.00    +0.096 A 
ATOM     22  C   UNL     1     -11.331  -0.263 -11.017  1.00  0.00    +0.002 A 
ATOM     23  C   UNL     1      -9.416  -0.439 -12.491  1.00  0.00    +0.063 A 
ATOM     24  C   UNL     1     -10.858  -1.358 -10.276  1.00  0.00    +0.010 A 
ATOM     25  C   UNL     1      -8.956  -1.529 -11.728  1.00  0.00    +0.028 A 
ATOM     26  C   UNL     1      -9.671  -1.989 -10.630  1.00  0.00    +0.003 A 
BRANCH  23  27
ATOM     27  N   UNL     1      -8.590  -0.072 -13.593  1.00  0.00    -0.370 N 
ATOM     28  C   UNL     1      -7.758   1.105 -13.279  1.00  0.00    +0.118 C 
ATOM     29  C   UNL     1      -9.314   0.034 -14.864  1.00  0.00    +0.118 C 
ATOM     30  C   UNL     1      -7.132   1.695 -14.550  1.00  0.00    +0.040 C 
ATOM     31  C   UNL     1      -8.298  -0.005 -16.013  1.00  0.00    +0.040 C 
ATOM     32  C   UNL     1      -6.949   0.618 -15.618  1.00  0.00    +0.054 C 
BRANCH  32  33
ATOM     33  N   UNL     1      -6.277   1.160 -16.804  1.00  0.00    -0.328 NA
ATOM     34  H   UNL     1      -6.957   1.642 -17.391  1.00  0.00    +0.119 HD
ATOM     35  H   UNL     1      -5.599   1.864 -16.515  1.00  0.00    +0.119 HD
ENDBRANCH  32  33
ENDBRANCH  23  27
ENDBRANCH   9  17
TORSDOF 6
ENDMDL
MODEL 7
REMARK VINA RESULT:    -9.126      1.844      3.099
REMARK INTER + INTRA:         -13.154
REMARK INTER:                 -12.204
REMARK INTRA:                  -0.950
REMARK UNBOUND:                -1.095
REMARK SMILES CC1(COc2ccc3c(c2)ncn3-c2ccc3cccc(N4CCC(N)CC4)c3n2)COC1
REMARK SMILES IDX 5 1 6 2 7 3 8 4 9 5 10 6 11 7 12 8 13 9 4 10 3 11 2 12 31 13
REMARK SMILES IDX 33 14 32 15 1 16 14 17 15 18 30 19 16 20 29 21 17 22 21 23
REMARK SMILES IDX 18 24 20 25 19 26 22 27 23 28 28 29 24 30 27 31 25 32 26 33
REMARK H PARENT 26 34 26 35
ROOT
ATOM      1  C   UNL     1     -12.567  -0.955  -9.740  1.00  0.00    +0.121 A 
ATOM      2  C   UNL     1     -12.979   0.359  -9.962  1.00  0.00    +0.049 A 
ATOM      3  C   UNL     1     -12.446   1.140 -10.996  1.00  0.00    +0.033 A 
ATOM      4  C   UNL     1     -11.485   0.552 -11.833  1.00  0.00    +0.075 A 
ATOM      5  C   UNL     1     -11.028  -0.748 -11.592  1.00  0.00    +0.093 A 
ATOM      6  C   UNL     1     -11.580  -1.515 -10.550  1.00  0.00    +0.077 A 
ATOM      7  N   UNL     1     -10.024  -1.098 -12.450  1.00  0.00    -0.236 NA
ATOM      8  C   UNL     1      -9.848  -0.041 -13.207  1.00  0.00    +0.206 A 
ATOM      9  N   UNL     1     -10.745   0.974 -12.936  1.00  0.00    -0.283 N 
ENDROOT
BRANCH   1  10
ATOM     10  O   UNL     1     -13.191  -1.576  -8.691  1.00  0.00    -0.493 OA
BRANCH  10  11
ATOM     11  C   UNL     1     -14.547  -1.983  -8.885  1.00  0.00    +0.241 C 
BRANCH  11  12
ATOM     12  C   UNL     1     -15.398  -1.536  -7.698  1.00  0.00    +0.048 C 
ATOM     13  C   UNL     1     -15.732  -0.033  -7.614  1.00  0.00    +0.172 C 
ATOM     14  C   UNL     1     -14.652  -1.272  -6.373  1.00  0.00    +0.172 C 
ATOM     15  O   UNL     1     -15.334   0.001  -6.216  1.00  0.00    -0.380 OA
ATOM     16  C   UNL     1     -16.627  -2.430  -7.523  1.00  0.00    +0.020 C 
ENDBRANCH  11  12
ENDBRANCH  10  11
ENDBRANCH   1  10
BRANCH   9  17
ATOM     17  C   UNL     1     -10.813   2.170 -13.710  1.00  0.00    +0.139 A 
ATOM     18  C   UNL     1     -11.858   3.064 -13.580  1.00  0.00    +0.048 A 
ATOM     19  N   UNL     1      -9.815   2.360 -14.613  1.00  0.00    -0.228 NA
ATOM     20  C   UNL     1     -11.858   4.204 -14.379  1.00  0.00    +0.014 A 
ATOM     21  C   UNL     1      -9.793   3.469 -15.394  1.00  0.00    +0.096 A 
ATOM     22  C   UNL     1     -10.825   4.426 -15.296  1.00  0.00    +0.002 A 
ATOM     23  C   UNL     1      -8.757   3.706 -16.334  1.00  0.00    +0.063 A 
ATOM     24  C   UNL     1     -10.830   5.573 -16.108  1.00  0.00    +0.010 A 
ATOM     25  C   UNL     1      -8.788   4.857 -17.143  1.00  0.00    +0.028 A 
ATOM     26  C   UNL     1      -9.814   5.787 -17.032  1.00  0.00    +0.003 A 
BRANCH  23  27
ATOM     27  N   UNL     1      -7.648   2.838 -16.547  1.00  0.00    -0.370 N 
ATOM     28  C   UNL     1      -6.549   3.121 -15.603  1.00  0.00    +0.118 C 
ATOM     29  C   UNL     1      -7.220   2.757 -17.948  1.00  0.00    +0.118 C 
ATOM     30  C   UNL     1      -5.251   2.430 -16.042  1.00  0.00    +0.040 C 
ATOM     31  C   UNL     1      -6.348   1.508 -18.124  1.00  0.00    +0.040 C 
ATOM     32  C   UNL     1      -5.551   1.171 -16.854  1.00  0.00    +0.054 C 
BRANCH  32  33
ATOM     33  N   UNL     1      -4.314   0.464 -17.207  1.00  0.00    -0.328 NA
ATOM     34  H   UNL     1      -3.733   0.358 -16.376  1.00  0.00    +0.119 HD
ATOM     35  H   UNL     1      -4.542  -0.480 -17.517  1.00  0.00    +0.119 HD
ENDBRANCH  32  33
ENDBRANCH  23  27
ENDBRANCH   9  17
TORSDOF 6
ENDMDL
MODEL 8
REMARK VINA RESULT:    -9.092      3.866      9.042
REMARK INTER + INTRA:         -13.110
REMARK INTER:                 -12.089
REMARK INTRA:                  -1.021
REMARK UNBOUND:                -1.095
REMARK SMILES CC1(COc2ccc3c(c2)ncn3-c2ccc3cccc(N4CCC(N)CC4)c3n2)COC1
REMARK SMILES IDX 5 1 6 2 7 3 8 4 9 5 10 6 11 7 12 8 13 9 4 10 3 11 2 12 31 13
REMARK SMILES IDX 33 14 32 15 1 16 14 17 15 18 30 19 16 20 29 21 17 22 21 23
REMARK SMILES IDX 18 24 20 25 19 26 22 27 23 28 28 29 24 30 27 31 25 32 26 33
REMARK H PARENT 26 34 26 35
ROOT
ATOM      1  C   UNL     1      -9.348   4.255 -16.289  1.00  0.00    +0.121 A 
ATOM      2  C   UNL     1     -10.516   4.685 -15.659  1.00  0.00    +0.049 A 
ATOM      3  C   UNL     1     -11.176   3.901 -14.703  1.00  0.00    +0.033 A 
ATOM      4  C   UNL     1     -10.613   2.658 -14.372  1.00  0.00    +0.075 A 
ATOM      5  C   UNL     1      -9.470   2.195 -15.031  1.00  0.00    +0.093 A 
ATOM      6  C   UNL     1      -8.821   3.000 -15.985  1.00  0.00    +0.077 A 
ATOM      7  N   UNL     1      -9.142   0.927 -14.642  1.00  0.00    -0.236 NA
ATOM      8  C   UNL     1     -10.061   0.599 -13.765  1.00  0.00    +0.206 A 
ATOM      9  N   UNL     1     -10.946   1.624 -13.500  1.00  0.00    -0.283 N 
ENDROOT
BRANCH   1  10
ATOM     10  O   UNL     1      -8.831   5.144 -17.193  1.00  0.00    -0.493 OA
BRANCH  10  11
ATOM     11  C   UNL     1      -9.259   6.503 -17.092  1.00  0.00    +0.241 C 
BRANCH  11  12
ATOM     12  C   UNL     1      -9.460   7.089 -18.488  1.00  0.00    +0.048 C 
ATOM     13  C   UNL     1     -10.588   6.474 -19.340  1.00  0.00    +0.172 C 
ATOM     14  C   UNL     1      -8.547   6.544 -19.605  1.00  0.00    +0.172 C 
ATOM     15  O   UNL     1      -9.692   6.350 -20.478  1.00  0.00    -0.380 OA
ATOM     16  C   UNL     1      -9.509   8.618 -18.451  1.00  0.00    +0.020 C 
ENDBRANCH  11  12
ENDBRANCH  10  11
ENDBRANCH   1  10
BRANCH   9  17
ATOM     17  C   UNL     1     -11.958   1.530 -12.499  1.00  0.00    +0.139 A 
ATOM     18  C   UNL     1     -13.080   2.337 -12.518  1.00  0.00    +0.048 A 
ATOM     19  N   UNL     1     -11.737   0.633 -11.502  1.00  0.00    -0.228 NA
ATOM     20  C   UNL     1     -14.017   2.192 -11.499  1.00  0.00    +0.014 A 
ATOM     21  C   UNL     1     -12.644   0.471 -10.506  1.00  0.00    +0.096 A 
ATOM     22  C   UNL     1     -13.815   1.256 -10.478  1.00  0.00    +0.002 A 
ATOM     23  C   UNL     1     -12.451  -0.468  -9.460  1.00  0.00    +0.063 A 
ATOM     24  C   UNL     1     -14.757   1.116  -9.446  1.00  0.00    +0.010 A 
ATOM     25  C   UNL     1     -13.404  -0.584  -8.431  1.00  0.00    +0.028 A 
ATOM     26  C   UNL     1     -14.551   0.200  -8.423  1.00  0.00    +0.003 A 
BRANCH  23  27
ATOM     27  N   UNL     1     -11.324  -1.333  -9.350  1.00  0.00    -0.370 N 
ATOM     28  C   UNL     1     -11.656  -2.710  -9.764  1.00  0.00    +0.118 C 
ATOM     29  C   UNL     1     -10.639  -1.251  -8.056  1.00  0.00    +0.118 C 
ATOM     30  C   UNL     1     -10.560  -3.696  -9.333  1.00  0.00    +0.040 C 
ATOM     31  C   UNL     1      -9.240  -1.862  -8.200  1.00  0.00    +0.040 C 
ATOM     32  C   UNL     1      -9.205  -2.996  -9.236  1.00  0.00    +0.054 C 
BRANCH  32  33
ATOM     33  N   UNL     1      -8.141  -3.952  -8.905  1.00  0.00    -0.328 NA
ATOM     34  H   UNL     1      -7.974  -3.939  -7.899  1.00  0.00    +0.119 HD
ATOM     35  H   UNL     1      -8.454  -4.896  -9.130  1.00  0.00    +0.119 HD
ENDBRANCH  32  33
ENDBRANCH  23  27
ENDBRANCH   9  17
TORSDOF 6
ENDMDL
MODEL 9
REMARK VINA RESULT:    -9.000      4.686      8.779
REMARK INTER + INTRA:         -12.988
REMARK INTER:                 -11.980
REMARK INTRA:                  -1.008
REMARK UNBOUND:                -1.095
REMARK SMILES CC1(COc2ccc3c(c2)ncn3-c2ccc3cccc(N4CCC(N)CC4)c3n2)COC1
REMARK SMILES IDX 5 1 6 2 7 3 8 4 9 5 10 6 11 7 12 8 13 9 4 10 3 11 2 12 31 13
REMARK SMILES IDX 33 14 32 15 1 16 14 17 15 18 30 19 16 20 29 21 17 22 21 23
REMARK SMILES IDX 18 24 20 25 19 26 22 27 23 28 28 29 24 30 27 31 25 32 26 33
REMARK H PARENT 26 34 26 35
ROOT
ATOM      1  C   UNL     1      -4.886  -2.040 -16.440  1.00  0.00    +0.121 A 
ATOM      2  C   UNL     1      -5.744  -1.989 -15.341  1.00  0.00    +0.049 A 
ATOM      3  C   UNL     1      -6.673  -0.954 -15.172  1.00  0.00    +0.033 A 
ATOM      4  C   UNL     1      -6.737   0.039 -16.162  1.00  0.00    +0.075 A 
ATOM      5  C   UNL     1      -5.849   0.026 -17.244  1.00  0.00    +0.093 A 
ATOM      6  C   UNL     1      -4.927  -1.025 -17.396  1.00  0.00    +0.077 A 
ATOM      7  N   UNL     1      -6.004   1.128 -18.037  1.00  0.00    -0.236 NA
ATOM      8  C   UNL     1      -6.959   1.820 -17.464  1.00  0.00    +0.206 A 
ATOM      9  N   UNL     1      -7.499   1.188 -16.361  1.00  0.00    -0.283 N 
ENDROOT
BRANCH   1  10
ATOM     10  O   UNL     1      -4.044  -3.119 -16.453  1.00  0.00    -0.493 OA
BRANCH  10  11
ATOM     11  C   UNL     1      -4.038  -3.957 -15.295  1.00  0.00    +0.241 C 
BRANCH  11  12
ATOM     12  C   UNL     1      -4.352  -5.397 -15.696  1.00  0.00    +0.048 C 
ATOM     13  C   UNL     1      -5.842  -5.786 -15.764  1.00  0.00    +0.172 C 
ATOM     14  C   UNL     1      -4.301  -6.454 -14.573  1.00  0.00    +0.172 C 
ATOM     15  O   UNL     1      -5.589  -6.986 -14.984  1.00  0.00    -0.380 OA
ATOM     16  C   UNL     1      -3.570  -5.814 -16.942  1.00  0.00    +0.020 C 
ENDBRANCH  11  12
ENDBRANCH  10  11
ENDBRANCH   1  10
BRANCH   9  17
ATOM     17  C   UNL     1      -8.623   1.704 -15.651  1.00  0.00    +0.139 A 
ATOM     18  C   UNL     1      -9.189   1.023 -14.589  1.00  0.00    +0.048 A 
ATOM     19  N   UNL     1      -9.133   2.880 -16.101  1.00  0.00    -0.228 NA
ATOM     20  C   UNL     1     -10.292   1.587 -13.954  1.00  0.00    +0.014 A 
ATOM     21  C   UNL     1     -10.201   3.449 -15.489  1.00  0.00    +0.096 A 
ATOM     22  C   UNL     1     -10.814   2.809 -14.392  1.00  0.00    +0.002 A 
ATOM     23  C   UNL     1     -10.747   4.684 -15.925  1.00  0.00    +0.063 A 
ATOM     24  C   UNL     1     -11.932   3.374 -13.755  1.00  0.00    +0.010 A 
ATOM     25  C   UNL     1     -11.873   5.226 -15.277  1.00  0.00    +0.028 A 
ATOM     26  C   UNL     1     -12.462   4.579 -14.198  1.00  0.00    +0.003 A 
BRANCH  23  27
ATOM     27  N   UNL     1     -10.240   5.451 -17.014  1.00  0.00    -0.370 N 
ATOM     28  C   UNL     1      -9.620   6.707 -16.549  1.00  0.00    +0.118 C 
ATOM     29  C   UNL     1     -11.200   5.632 -18.108  1.00  0.00    +0.118 C 
ATOM     30  C   UNL     1      -9.383   7.672 -17.719  1.00  0.00    +0.040 C 
ATOM     31  C   UNL     1     -10.437   6.068 -19.364  1.00  0.00    +0.040 C 
ATOM     32  C   UNL     1      -9.193   6.906 -19.028  1.00  0.00    +0.054 C 
BRANCH  32  33
ATOM     33  N   UNL     1      -8.885   7.820 -20.134  1.00  0.00    -0.328 NA
ATOM     34  H   UNL     1      -8.382   7.315 -20.863  1.00  0.00    +0.119 HD
ATOM     35  H   UNL     1      -9.754   8.142 -20.557  1.00  0.00    +0.119 HD
ENDBRANCH  32  33
ENDBRANCH  23  27
ENDBRANCH   9  17
TORSDOF 6
ENDMDL
MODEL 10
REMARK VINA RESULT:    -8.995      3.554      7.832
REMARK INTER + INTRA:         -12.982
REMARK INTER:                 -11.859
REMARK INTRA:                  -1.123
REMARK UNBOUND:                -1.095
REMARK SMILES CC1(COc2ccc3c(c2)ncn3-c2ccc3cccc(N4CCC(N)CC4)c3n2)COC1
REMARK SMILES IDX 5 1 6 2 7 3 8 4 9 5 10 6 11 7 12 8 13 9 4 10 3 11 2 12 31 13
REMARK SMILES IDX 33 14 32 15 1 16 14 17 15 18 30 19 16 20 29 21 17 22 21 23
REMARK SMILES IDX 18 24 20 25 19 26 22 27 23 28 28 29 24 30 27 31 25 32 26 33
REMARK H PARENT 26 34 26 35
ROOT
ATOM      1  C   UNL     1     -11.172   5.444 -16.181  1.00  0.00    +0.121 A 
ATOM      2  C   UNL     1     -10.050   4.660 -15.913  1.00  0.00    +0.049 A 
ATOM      3  C   UNL     1     -10.074   3.628 -14.965  1.00  0.00    +0.033 A 
ATOM      4  C   UNL     1     -11.282   3.383 -14.292  1.00  0.00    +0.075 A 
ATOM      5  C   UNL     1     -12.400   4.193 -14.517  1.00  0.00    +0.093 A 
ATOM      6  C   UNL     1     -12.355   5.221 -15.476  1.00  0.00    +0.077 A 
ATOM      7  N   UNL     1     -13.439   3.859 -13.695  1.00  0.00    -0.236 NA
ATOM      8  C   UNL     1     -12.983   2.868 -12.966  1.00  0.00    +0.206 A 
ATOM      9  N   UNL     1     -11.706   2.480 -13.320  1.00  0.00    -0.283 N 
ENDROOT
BRANCH   1  10
ATOM     10  O   UNL     1     -10.978   6.404 -17.137  1.00  0.00    -0.493 OA
BRANCH  10  11
ATOM     11  C   UNL     1     -10.907   5.969 -18.496  1.00  0.00    +0.241 C 
BRANCH  11  12
ATOM     12  C   UNL     1      -9.762   6.684 -19.211  1.00  0.00    +0.048 C 
ATOM     13  C   UNL     1      -9.592   8.187 -18.910  1.00  0.00    +0.172 C 
ATOM     14  C   UNL     1     -10.043   7.175 -20.646  1.00  0.00    +0.172 C 
ATOM     15  O   UNL     1      -9.497   8.484 -20.330  1.00  0.00    -0.380 OA
ATOM     16  C   UNL     1      -8.453   5.902 -19.094  1.00  0.00    +0.020 C 
ENDBRANCH  11  12
ENDBRANCH  10  11
ENDBRANCH   1  10
BRANCH   9  17
ATOM     17  C   UNL     1     -11.054   1.353 -12.739  1.00  0.00    +0.139 A 
ATOM     18  C   UNL     1     -11.636   0.618 -11.723  1.00  0.00    +0.048 A 
ATOM     19  N   UNL     1      -9.811   1.067 -13.208  1.00  0.00    -0.228 NA
ATOM     20  C   UNL     1     -10.931  -0.463 -11.200  1.00  0.00    +0.014 A 
ATOM     21  C   UNL     1      -9.113   0.012 -12.717  1.00  0.00    +0.096 A 
ATOM     22  C   UNL     1      -9.660  -0.784 -11.690  1.00  0.00    +0.002 A 
ATOM     23  C   UNL     1      -7.820  -0.322 -13.196  1.00  0.00    +0.063 A 
ATOM     24  C   UNL     1      -8.946  -1.870 -11.156  1.00  0.00    +0.010 A 
ATOM     25  C   UNL     1      -7.120  -1.408 -12.640  1.00  0.00    +0.028 A 
ATOM     26  C   UNL     1      -7.678  -2.180 -11.628  1.00  0.00    +0.003 A 
BRANCH  23  27
ATOM     27  N   UNL     1      -7.136   0.382 -14.229  1.00  0.00    -0.370 N 
ATOM     28  C   UNL     1      -7.197  -0.344 -15.512  1.00  0.00    +0.118 C 
ATOM     29  C   UNL     1      -5.785   0.815 -13.856  1.00  0.00    +0.118 C 
ATOM     30  C   UNL     1      -6.194   0.232 -16.522  1.00  0.00    +0.040 C 
ATOM     31  C   UNL     1      -5.329   1.904 -14.835  1.00  0.00    +0.040 C 
ATOM     32  C   UNL     1      -5.923   1.709 -16.239  1.00  0.00    +0.054 C 
BRANCH  32  33
ATOM     33  N   UNL     1      -5.028   2.284 -17.250  1.00  0.00    -0.328 NA
ATOM     34  H   UNL     1      -4.902   3.279 -17.067  1.00  0.00    +0.119 HD
ATOM     35  H   UNL     1      -4.105   1.859 -17.164  1.00  0.00    +0.119 HD
ENDBRANCH  32  33
ENDBRANCH  23  27
ENDBRANCH   9  17
TORSDOF 6
ENDMDL
