MODEL 1
REMARK VINA RESULT:   -10.549      0.000      0.000
REMARK INTER + INTRA:         -14.378
REMARK INTER:                 -14.249
REMARK INTRA:                  -0.130
REMARK UNBOUND:                -0.130
REMARK SMILES COc1cc2nccc(Oc3ccc(NC(=O)Nc4cc(C)on4)c(Cl)c3)c2cc1OC
REMARK SMILES IDX 11 1 12 2 13 3 14 4 25 5 26 6 27 7 10 8 9 9 3 10 4 11 30 12
REMARK SMILES IDX 5 13 29 14 6 15 28 16 7 17 8 18 2 19 1 20 31 21 32 22 15 23
REMARK SMILES IDX 16 24 17 25 18 26 19 29 20 30 24 31 21 32 23 33 22 34
REMARK H PARENT 15 27 18 28
ROOT
ATOM      1  C   UNL     1     -39.329 159.943  -2.106  1.00  0.00    +0.129 A 
ATOM      2  C   UNL     1     -38.273 159.087  -1.794  1.00  0.00    +0.049 A 
ATOM      3  C   UNL     1     -38.248 158.418  -0.563  1.00  0.00    +0.031 A 
ATOM      4  C   UNL     1     -39.270 158.606   0.370  1.00  0.00    +0.061 A 
ATOM      5  C   UNL     1     -40.312 159.498   0.050  1.00  0.00    +0.068 A 
ATOM      6 Cl   UNL     1     -41.599 159.800   1.171  1.00  0.00    -0.082 Cl
ATOM      7  C   UNL     1     -40.342 160.166  -1.176  1.00  0.00    +0.069 A 
ENDROOT
BRANCH   1   8
ATOM      8  O   UNL     1     -39.408 160.658  -3.281  1.00  0.00    -0.457 OA
BRANCH   8   9
ATOM      9  C   UNL     1     -39.096 162.001  -3.229  1.00  0.00    +0.138 A 
ATOM     10  C   UNL     1     -37.877 164.071  -6.691  1.00  0.00    +0.162 A 
ATOM     11  C   UNL     1     -37.944 164.693  -5.439  1.00  0.00    +0.079 A 
ATOM     12  C   UNL     1     -38.220 162.714  -6.808  1.00  0.00    +0.161 A 
ATOM     13  C   UNL     1     -38.342 164.010  -4.298  1.00  0.00    +0.078 A 
ATOM     14  C   UNL     1     -38.623 162.014  -5.669  1.00  0.00    +0.064 A 
ATOM     15  N   UNL     1     -38.379 164.674  -3.129  1.00  0.00    -0.256 NA
ATOM     16  C   UNL     1     -38.689 162.653  -4.410  1.00  0.00    +0.047 A 
ATOM     17  C   UNL     1     -38.755 164.004  -2.018  1.00  0.00    +0.115 A 
ATOM     18  C   UNL     1     -39.113 162.674  -2.011  1.00  0.00    +0.068 A 
BRANCH  10  19
ATOM     19  O   UNL     1     -37.490 164.698  -7.850  1.00  0.00    -0.493 OA
ATOM     20  C   UNL     1     -38.289 165.778  -8.314  1.00  0.00    +0.278 C 
ENDBRANCH  10  19
BRANCH  12  21
ATOM     21  O   UNL     1     -38.131 162.171  -8.064  1.00  0.00    -0.493 OA
ATOM     22  C   UNL     1     -37.059 161.278  -8.326  1.00  0.00    +0.278 C 
ENDBRANCH  12  21
ENDBRANCH   8   9
ENDBRANCH   1   8
BRANCH   4  23
ATOM     23  N   UNL     1     -39.299 157.965   1.633  1.00  0.00    -0.306 N 
ATOM     24  C   UNL     1     -38.234 157.723   2.490  1.00  0.00    +0.324 C 
ATOM     25  O   UNL     1     -37.067 157.976   2.228  1.00  0.00    -0.248 OA
ATOM     26  N   UNL     1     -38.691 157.164   3.672  1.00  0.00    -0.289 N 
ATOM     27  H   UNL     1     -40.173 157.506   1.850  1.00  0.00    +0.171 HD
ATOM     28  H   UNL     1     -39.679 157.169   3.854  1.00  0.00    +0.173 HD
BRANCH  26  29
ATOM     29  C   UNL     1     -37.879 156.736   4.705  1.00  0.00    +0.177 A 
ATOM     30  C   UNL     1     -37.714 155.370   5.050  1.00  0.00    +0.095 A 
ATOM     31  N   UNL     1     -37.136 157.510   5.501  1.00  0.00    -0.062 NA
ATOM     32  C   UNL     1     -36.835 155.380   6.104  1.00  0.00    +0.135 A 
ATOM     33  O   UNL     1     -36.487 156.663   6.376  1.00  0.00    -0.360 OA
ATOM     34  C   UNL     1     -36.225 154.341   6.952  1.00  0.00    +0.091 C 
ENDBRANCH  26  29
ENDBRANCH   4  23
TORSDOF 6
ENDMDL
MODEL 2
REMARK VINA RESULT:    -9.805      2.346     11.476
REMARK INTER + INTRA:         -13.375
REMARK INTER:                 -12.779
REMARK INTRA:                  -0.596
REMARK UNBOUND:                -0.130
REMARK SMILES COc1cc2nccc(Oc3ccc(NC(=O)Nc4cc(C)on4)c(Cl)c3)c2cc1OC
REMARK SMILES IDX 11 1 12 2 13 3 14 4 25 5 26 6 27 7 10 8 9 9 3 10 4 11 30 12
REMARK SMILES IDX 5 13 29 14 6 15 28 16 7 17 8 18 2 19 1 20 31 21 32 22 15 23
REMARK SMILES IDX 16 24 17 25 18 26 19 29 20 30 24 31 21 32 23 33 22 34
REMARK H PARENT 15 27 18 28
ROOT
ATOM      1  C   UNL     1     -38.919 157.835   2.745  1.00  0.00    +0.129 A 
ATOM      2  C   UNL     1     -37.885 157.952   1.817  1.00  0.00    +0.049 A 
ATOM      3  C   UNL     1     -38.069 158.702   0.648  1.00  0.00    +0.031 A 
ATOM      4  C   UNL     1     -39.289 159.332   0.391  1.00  0.00    +0.061 A 
ATOM      5  C   UNL     1     -40.332 159.177   1.326  1.00  0.00    +0.068 A 
ATOM      6 Cl   UNL     1     -41.880 159.908   1.060  1.00  0.00    -0.082 Cl
ATOM      7  C   UNL     1     -40.152 158.432   2.493  1.00  0.00    +0.069 A 
ENDROOT
BRANCH   1   8
ATOM      8  O   UNL     1     -38.822 157.091   3.901  1.00  0.00    -0.457 OA
BRANCH   8   9
ATOM      9  C   UNL     1     -37.643 157.176   4.613  1.00  0.00    +0.138 A 
ATOM     10  C   UNL     1     -35.751 153.708   6.077  1.00  0.00    +0.162 A 
ATOM     11  C   UNL     1     -35.244 154.989   6.321  1.00  0.00    +0.079 A 
ATOM     12  C   UNL     1     -36.928 153.561   5.326  1.00  0.00    +0.161 A 
ATOM     13  C   UNL     1     -35.869 156.132   5.842  1.00  0.00    +0.078 A 
ATOM     14  C   UNL     1     -37.568 154.702   4.837  1.00  0.00    +0.064 A 
ATOM     15  N   UNL     1     -35.324 157.330   6.121  1.00  0.00    -0.256 NA
ATOM     16  C   UNL     1     -37.047 155.991   5.088  1.00  0.00    +0.047 A 
ATOM     17  C   UNL     1     -35.942 158.441   5.662  1.00  0.00    +0.115 A 
ATOM     18  C   UNL     1     -37.100 158.420   4.917  1.00  0.00    +0.068 A 
BRANCH  10  19
ATOM     19  O   UNL     1     -35.173 152.545   6.527  1.00  0.00    -0.493 OA
ATOM     20  C   UNL     1     -33.855 152.250   6.086  1.00  0.00    +0.278 C 
ENDBRANCH  10  19
BRANCH  12  21
ATOM     21  O   UNL     1     -37.366 152.277   5.126  1.00  0.00    -0.493 OA
ATOM     22  C   UNL     1     -38.469 151.825   5.898  1.00  0.00    +0.278 C 
ENDBRANCH  12  21
ENDBRANCH   8   9
ENDBRANCH   1   8
BRANCH   4  23
ATOM     23  N   UNL     1     -39.540 160.098  -0.773  1.00  0.00    -0.306 N 
ATOM     24  C   UNL     1     -38.965 161.309  -1.138  1.00  0.00    +0.324 C 
ATOM     25  O   UNL     1     -38.185 161.939  -0.439  1.00  0.00    -0.248 OA
ATOM     26  N   UNL     1     -39.400 161.683  -2.397  1.00  0.00    -0.289 N 
ATOM     27  H   UNL     1     -40.338 159.791  -1.314  1.00  0.00    +0.171 HD
ATOM     28  H   UNL     1     -39.892 161.007  -2.956  1.00  0.00    +0.173 HD
BRANCH  26  29
ATOM     29  C   UNL     1     -39.074 162.872  -3.022  1.00  0.00    +0.177 A 
ATOM     30  C   UNL     1     -38.849 162.982  -4.418  1.00  0.00    +0.095 A 
ATOM     31  N   UNL     1     -38.943 164.064  -2.434  1.00  0.00    -0.062 NA
ATOM     32  C   UNL     1     -38.568 164.310  -4.623  1.00  0.00    +0.135 A 
ATOM     33  O   UNL     1     -38.623 164.961  -3.434  1.00  0.00    -0.360 OA
ATOM     34  C   UNL     1     -38.238 165.126  -5.803  1.00  0.00    +0.091 C 
ENDBRANCH  26  29
ENDBRANCH   4  23
TORSDOF 6
ENDMDL
MODEL 3
REMARK VINA RESULT:    -9.655      3.604      6.567
REMARK INTER + INTRA:         -13.172
REMARK INTER:                 -12.526
REMARK INTRA:                  -0.646
REMARK UNBOUND:                -0.130
REMARK SMILES COc1cc2nccc(Oc3ccc(NC(=O)Nc4cc(C)on4)c(Cl)c3)c2cc1OC
REMARK SMILES IDX 11 1 12 2 13 3 14 4 25 5 26 6 27 7 10 8 9 9 3 10 4 11 30 12
REMARK SMILES IDX 5 13 29 14 6 15 28 16 7 17 8 18 2 19 1 20 31 21 32 22 15 23
REMARK SMILES IDX 16 24 17 25 18 26 19 29 20 30 24 31 21 32 23 33 22 34
REMARK H PARENT 15 27 18 28
ROOT
ATOM      1  C   UNL     1     -37.278 162.550  -6.626  1.00  0.00    +0.129 A 
ATOM      2  C   UNL     1     -37.724 161.279  -6.264  1.00  0.00    +0.049 A 
ATOM      3  C   UNL     1     -38.470 161.102  -5.091  1.00  0.00    +0.031 A 
ATOM      4  C   UNL     1     -38.768 162.189  -4.266  1.00  0.00    +0.061 A 
ATOM      5  C   UNL     1     -38.282 163.459  -4.632  1.00  0.00    +0.068 A 
ATOM      6 Cl   UNL     1     -38.590 164.848  -3.643  1.00  0.00    -0.082 Cl
ATOM      7  C   UNL     1     -37.540 163.640  -5.801  1.00  0.00    +0.069 A 
ENDROOT
BRANCH   1   8
ATOM      8  O   UNL     1     -36.516 162.797  -7.747  1.00  0.00    -0.457 OA
BRANCH   8   9
ATOM      9  C   UNL     1     -37.164 162.807  -8.965  1.00  0.00    +0.138 A 
ATOM     10  C   UNL     1     -37.316 159.343 -11.359  1.00  0.00    +0.162 A 
ATOM     11  C   UNL     1     -37.876 160.556 -11.773  1.00  0.00    +0.079 A 
ATOM     12  C   UNL     1     -36.677 159.266 -10.111  1.00  0.00    +0.161 A 
ATOM     13  C   UNL     1     -37.823 161.698 -10.986  1.00  0.00    +0.078 A 
ATOM     14  C   UNL     1     -36.616 160.407  -9.308  1.00  0.00    +0.064 A 
ATOM     15  N   UNL     1     -38.381 162.830 -11.454  1.00  0.00    -0.256 NA
ATOM     16  C   UNL     1     -37.187 161.627  -9.735  1.00  0.00    +0.047 A 
ATOM     17  C   UNL     1     -38.317 163.942 -10.690  1.00  0.00    +0.115 A 
ATOM     18  C   UNL     1     -37.717 163.987  -9.451  1.00  0.00    +0.068 A 
BRANCH  10  19
ATOM     19  O   UNL     1     -37.340 158.184 -12.097  1.00  0.00    -0.493 OA
ATOM     20  C   UNL     1     -38.559 157.456 -12.143  1.00  0.00    +0.278 C 
ENDBRANCH  10  19
BRANCH  12  21
ATOM     21  O   UNL     1     -36.151 158.046  -9.771  1.00  0.00    -0.493 OA
ATOM     22  C   UNL     1     -35.136 158.015  -8.779  1.00  0.00    +0.278 C 
ENDBRANCH  12  21
ENDBRANCH   8   9
ENDBRANCH   1   8
BRANCH   4  23
ATOM     23  N   UNL     1     -39.511 162.075  -3.066  1.00  0.00    -0.306 N 
ATOM     24  C   UNL     1     -39.313 161.180  -2.022  1.00  0.00    +0.324 C 
ATOM     25  O   UNL     1     -38.481 160.284  -2.032  1.00  0.00    -0.248 OA
ATOM     26  N   UNL     1     -40.185 161.458  -0.984  1.00  0.00    -0.289 N 
ATOM     27  H   UNL     1     -40.368 162.612  -3.050  1.00  0.00    +0.171 HD
ATOM     28  H   UNL     1     -40.696 162.323  -1.005  1.00  0.00    +0.173 HD
BRANCH  26  29
ATOM     29  C   UNL     1     -40.298 160.708   0.172  1.00  0.00    +0.177 A 
ATOM     30  C   UNL     1     -41.415 159.882   0.458  1.00  0.00    +0.095 A 
ATOM     31  N   UNL     1     -39.398 160.631   1.156  1.00  0.00    -0.062 NA
ATOM     32  C   UNL     1     -41.128 159.317   1.675  1.00  0.00    +0.135 A 
ATOM     33  O   UNL     1     -39.918 159.765   2.096  1.00  0.00    -0.360 OA
ATOM     34  C   UNL     1     -41.825 158.376   2.568  1.00  0.00    +0.091 C 
ENDBRANCH  26  29
ENDBRANCH   4  23
TORSDOF 6
ENDMDL
MODEL 4
REMARK VINA RESULT:    -9.572      4.318      7.954
REMARK INTER + INTRA:         -13.059
REMARK INTER:                 -12.304
REMARK INTRA:                  -0.755
REMARK UNBOUND:                -0.130
REMARK SMILES COc1cc2nccc(Oc3ccc(NC(=O)Nc4cc(C)on4)c(Cl)c3)c2cc1OC
REMARK SMILES IDX 11 1 12 2 13 3 14 4 25 5 26 6 27 7 10 8 9 9 3 10 4 11 30 12
REMARK SMILES IDX 5 13 29 14 6 15 28 16 7 17 8 18 2 19 1 20 31 21 32 22 15 23
REMARK SMILES IDX 16 24 17 25 18 26 19 29 20 30 24 31 21 32 23 33 22 34
REMARK H PARENT 15 27 18 28
ROOT
ATOM      1  C   UNL     1     -37.975 163.648  -8.551  1.00  0.00    +0.129 A 
ATOM      2  C   UNL     1     -38.128 162.263  -8.488  1.00  0.00    +0.049 A 
ATOM      3  C   UNL     1     -38.109 161.608  -7.250  1.00  0.00    +0.031 A 
ATOM      4  C   UNL     1     -37.927 162.327  -6.066  1.00  0.00    +0.061 A 
ATOM      5  C   UNL     1     -37.743 163.721  -6.152  1.00  0.00    +0.068 A 
ATOM      6 Cl   UNL     1     -37.485 164.673  -4.727  1.00  0.00    -0.082 Cl
ATOM      7  C   UNL     1     -37.762 164.378  -7.384  1.00  0.00    +0.069 A 
ENDROOT
BRANCH   1   8
ATOM      8  O   UNL     1     -37.953 164.358  -9.731  1.00  0.00    -0.457 OA
BRANCH   8   9
ATOM      9  C   UNL     1     -36.723 164.570 -10.321  1.00  0.00    +0.138 A 
ATOM     10  C   UNL     1     -35.517 168.439 -11.472  1.00  0.00    +0.162 A 
ATOM     11  C   UNL     1     -34.718 167.313 -11.704  1.00  0.00    +0.079 A 
ATOM     12  C   UNL     1     -36.762 168.287 -10.840  1.00  0.00    +0.161 A 
ATOM     13  C   UNL     1     -35.118 166.038 -11.328  1.00  0.00    +0.078 A 
ATOM     14  C   UNL     1     -37.176 167.010 -10.456  1.00  0.00    +0.064 A 
ATOM     15  N   UNL     1     -34.298 165.004 -11.588  1.00  0.00    -0.256 NA
ATOM     16  C   UNL     1     -36.362 165.880 -10.694  1.00  0.00    +0.047 A 
ATOM     17  C   UNL     1     -34.695 163.762 -11.231  1.00  0.00    +0.115 A 
ATOM     18  C   UNL     1     -35.892 163.491 -10.607  1.00  0.00    +0.068 A 
BRANCH  10  19
ATOM     19  O   UNL     1     -35.171 169.722 -11.823  1.00  0.00    -0.493 OA
ATOM     20  C   UNL     1     -33.927 170.222 -11.352  1.00  0.00    +0.278 C 
ENDBRANCH  10  19
BRANCH  12  21
ATOM     21  O   UNL     1     -37.489 169.433 -10.645  1.00  0.00    -0.493 OA
ATOM     22  C   UNL     1     -38.467 169.770 -11.617  1.00  0.00    +0.278 C 
ENDBRANCH  12  21
ENDBRANCH   8   9
ENDBRANCH   1   8
BRANCH   4  23
ATOM     23  N   UNL     1     -37.892 161.723  -4.785  1.00  0.00    -0.306 N 
ATOM     24  C   UNL     1     -38.850 161.796  -3.783  1.00  0.00    +0.324 C 
ATOM     25  O   UNL     1     -39.863 162.479  -3.845  1.00  0.00    -0.248 OA
ATOM     26  N   UNL     1     -38.491 160.984  -2.721  1.00  0.00    -0.289 N 
ATOM     27  H   UNL     1     -36.998 161.324  -4.534  1.00  0.00    +0.171 HD
ATOM     28  H   UNL     1     -37.739 160.330  -2.849  1.00  0.00    +0.173 HD
BRANCH  26  29
ATOM     29  C   UNL     1     -39.191 160.887  -1.532  1.00  0.00    +0.177 A 
ATOM     30  C   UNL     1     -39.998 159.771  -1.194  1.00  0.00    +0.095 A 
ATOM     31  N   UNL     1     -39.202 161.785  -0.544  1.00  0.00    -0.062 NA
ATOM     32  C   UNL     1     -40.496 160.064   0.051  1.00  0.00    +0.135 A 
ATOM     33  O   UNL     1     -40.020 161.273   0.443  1.00  0.00    -0.360 OA
ATOM     34  C   UNL     1     -41.391 159.375   0.996  1.00  0.00    +0.091 C 
ENDBRANCH  26  29
ENDBRANCH   4  23
TORSDOF 6
ENDMDL
MODEL 5
REMARK VINA RESULT:    -9.330      1.619      2.027
REMARK INTER + INTRA:         -12.732
REMARK INTER:                 -13.401
REMARK INTRA:                   0.669
REMARK UNBOUND:                -0.130
REMARK SMILES COc1cc2nccc(Oc3ccc(NC(=O)Nc4cc(C)on4)c(Cl)c3)c2cc1OC
REMARK SMILES IDX 11 1 12 2 13 3 14 4 25 5 26 6 27 7 10 8 9 9 3 10 4 11 30 12
REMARK SMILES IDX 5 13 29 14 6 15 28 16 7 17 8 18 2 19 1 20 31 21 32 22 15 23
REMARK SMILES IDX 16 24 17 25 18 26 19 29 20 30 24 31 21 32 23 33 22 34
REMARK H PARENT 15 27 18 28
ROOT
ATOM      1  C   UNL     1     -39.061 160.915  -3.181  1.00  0.00    +0.129 A 
ATOM      2  C   UNL     1     -39.257 161.720  -2.059  1.00  0.00    +0.049 A 
ATOM      3  C   UNL     1     -39.364 161.140  -0.787  1.00  0.00    +0.031 A 
ATOM      4  C   UNL     1     -39.286 159.755  -0.626  1.00  0.00    +0.061 A 
ATOM      5  C   UNL     1     -39.119 158.957  -1.776  1.00  0.00    +0.068 A 
ATOM      6 Cl   UNL     1     -39.040 157.230  -1.655  1.00  0.00    -0.082 Cl
ATOM      7  C   UNL     1     -39.010 159.530  -3.044  1.00  0.00    +0.069 A 
ENDROOT
BRANCH   1   8
ATOM      8  O   UNL     1     -38.976 161.408  -4.465  1.00  0.00    -0.457 OA
BRANCH   8   9
ATOM      9  C   UNL     1     -38.820 162.771  -4.611  1.00  0.00    +0.138 A 
ATOM     10  C   UNL     1     -37.835 164.444  -8.351  1.00  0.00    +0.162 A 
ATOM     11  C   UNL     1     -37.977 165.229  -7.201  1.00  0.00    +0.079 A 
ATOM     12  C   UNL     1     -38.020 163.054  -8.267  1.00  0.00    +0.161 A 
ATOM     13  C   UNL     1     -38.298 164.678  -5.969  1.00  0.00    +0.078 A 
ATOM     14  C   UNL     1     -38.344 162.486  -7.034  1.00  0.00    +0.064 A 
ATOM     15  N   UNL     1     -38.414 165.496  -4.907  1.00  0.00    -0.256 NA
ATOM     16  C   UNL     1     -38.486 163.288  -5.879  1.00  0.00    +0.047 A 
ATOM     17  C   UNL     1     -38.715 164.954  -3.706  1.00  0.00    +0.115 A 
ATOM     18  C   UNL     1     -38.919 163.607  -3.503  1.00  0.00    +0.068 A 
BRANCH  10  19
ATOM     19  O   UNL     1     -37.519 164.937  -9.594  1.00  0.00    -0.493 OA
ATOM     20  C   UNL     1     -37.903 166.272  -9.891  1.00  0.00    +0.278 C 
ENDBRANCH  10  19
BRANCH  12  21
ATOM     21  O   UNL     1     -37.865 162.349  -9.433  1.00  0.00    -0.493 OA
ATOM     22  C   UNL     1     -36.911 161.298  -9.450  1.00  0.00    +0.278 C 
ENDBRANCH  12  21
ENDBRANCH   8   9
ENDBRANCH   1   8
BRANCH   4  23
ATOM     23  N   UNL     1     -39.393 159.109   0.629  1.00  0.00    -0.306 N 
ATOM     24  C   UNL     1     -38.382 158.504   1.365  1.00  0.00    +0.324 C 
ATOM     25  O   UNL     1     -37.229 158.378   0.978  1.00  0.00    -0.248 OA
ATOM     26  N   UNL     1     -38.873 158.077   2.587  1.00  0.00    -0.289 N 
ATOM     27  H   UNL     1     -40.342 158.948   0.939  1.00  0.00    +0.171 HD
ATOM     28  H   UNL     1     -39.782 158.393   2.876  1.00  0.00    +0.173 HD
BRANCH  26  29
ATOM     29  C   UNL     1     -38.143 157.370   3.525  1.00  0.00    +0.177 A 
ATOM     30  C   UNL     1     -37.517 157.978   4.643  1.00  0.00    +0.095 A 
ATOM     31  N   UNL     1     -37.937 156.051   3.536  1.00  0.00    -0.062 NA
ATOM     32  C   UNL     1     -36.918 156.941   5.314  1.00  0.00    +0.135 A 
ATOM     33  O   UNL     1     -37.169 155.784   4.651  1.00  0.00    -0.360 OA
ATOM     34  C   UNL     1     -36.107 156.833   6.538  1.00  0.00    +0.091 C 
ENDBRANCH  26  29
ENDBRANCH   4  23
TORSDOF 6
ENDMDL
MODEL 6
REMARK VINA RESULT:    -8.785      4.121     12.914
REMARK INTER + INTRA:         -11.997
REMARK INTER:                 -11.236
REMARK INTRA:                  -0.761
REMARK UNBOUND:                -0.130
REMARK SMILES COc1cc2nccc(Oc3ccc(NC(=O)Nc4cc(C)on4)c(Cl)c3)c2cc1OC
REMARK SMILES IDX 11 1 12 2 13 3 14 4 25 5 26 6 27 7 10 8 9 9 3 10 4 11 30 12
REMARK SMILES IDX 5 13 29 14 6 15 28 16 7 17 8 18 2 19 1 20 31 21 32 22 15 23
REMARK SMILES IDX 16 24 17 25 18 26 19 29 20 30 24 31 21 32 23 33 22 34
REMARK H PARENT 15 27 18 28
ROOT
ATOM      1  C   UNL     1     -37.376 154.834   5.844  1.00  0.00    +0.129 A 
ATOM      2  C   UNL     1     -37.748 154.597   4.521  1.00  0.00    +0.049 A 
ATOM      3  C   UNL     1     -37.786 155.653   3.600  1.00  0.00    +0.031 A 
ATOM      4  C   UNL     1     -37.462 156.954   3.994  1.00  0.00    +0.061 A 
ATOM      5  C   UNL     1     -37.120 157.178   5.342  1.00  0.00    +0.068 A 
ATOM      6 Cl   UNL     1     -36.733 158.770   5.908  1.00  0.00    -0.082 Cl
ATOM      7  C   UNL     1     -37.079 156.129   6.263  1.00  0.00    +0.069 A 
ENDROOT
BRANCH   1   8
ATOM      8  O   UNL     1     -37.344 153.854   6.812  1.00  0.00    -0.457 OA
BRANCH   8   9
ATOM      9  C   UNL     1     -36.515 152.773   6.593  1.00  0.00    +0.138 A 
ATOM     10  C   UNL     1     -38.090 149.039   5.441  1.00  0.00    +0.162 A 
ATOM     11  C   UNL     1     -36.721 149.232   5.659  1.00  0.00    +0.079 A 
ATOM     12  C   UNL     1     -38.976 150.115   5.613  1.00  0.00    +0.161 A 
ATOM     13  C   UNL     1     -36.203 150.461   6.042  1.00  0.00    +0.078 A 
ATOM     14  C   UNL     1     -38.469 151.358   5.998  1.00  0.00    +0.064 A 
ATOM     15  N   UNL     1     -34.876 150.569   6.236  1.00  0.00    -0.256 NA
ATOM     16  C   UNL     1     -37.084 151.542   6.213  1.00  0.00    +0.047 A 
ATOM     17  C   UNL     1     -34.376 151.764   6.620  1.00  0.00    +0.115 A 
ATOM     18  C   UNL     1     -35.147 152.888   6.820  1.00  0.00    +0.068 A 
BRANCH  10  19
ATOM     19  O   UNL     1     -38.656 147.846   5.063  1.00  0.00    -0.493 OA
ATOM     20  C   UNL     1     -38.294 147.317   3.794  1.00  0.00    +0.278 C 
ENDBRANCH  10  19
BRANCH  12  21
ATOM     21  O   UNL     1     -40.302 149.853   5.382  1.00  0.00    -0.493 OA
ATOM     22  C   UNL     1     -40.815 150.125   4.087  1.00  0.00    +0.278 C 
ENDBRANCH  12  21
ENDBRANCH   8   9
ENDBRANCH   1   8
BRANCH   4  23
ATOM     23  N   UNL     1     -37.488 158.063   3.115  1.00  0.00    -0.306 N 
ATOM     24  C   UNL     1     -38.404 158.331   2.106  1.00  0.00    +0.324 C 
ATOM     25  O   UNL     1     -39.309 157.576   1.779  1.00  0.00    -0.248 OA
ATOM     26  N   UNL     1     -38.143 159.566   1.540  1.00  0.00    -0.289 N 
ATOM     27  H   UNL     1     -36.655 158.636   3.138  1.00  0.00    +0.171 HD
ATOM     28  H   UNL     1     -37.495 160.179   2.003  1.00  0.00    +0.173 HD
BRANCH  26  29
ATOM     29  C   UNL     1     -38.824 160.098   0.461  1.00  0.00    +0.177 A 
ATOM     30  C   UNL     1     -38.262 160.208  -0.837  1.00  0.00    +0.095 A 
ATOM     31  N   UNL     1     -40.078 160.558   0.465  1.00  0.00    -0.062 NA
ATOM     32  C   UNL     1     -39.255 160.769  -1.601  1.00  0.00    +0.135 A 
ATOM     33  O   UNL     1     -40.346 160.980  -0.821  1.00  0.00    -0.360 OA
ATOM     34  C   UNL     1     -39.373 161.165  -3.014  1.00  0.00    +0.091 C 
ENDBRANCH  26  29
ENDBRANCH   4  23
TORSDOF 6
ENDMDL
MODEL 7
REMARK VINA RESULT:    -8.391      5.571     15.003
REMARK INTER + INTRA:         -11.464
REMARK INTER:                 -10.394
REMARK INTRA:                  -1.071
REMARK UNBOUND:                -0.130
REMARK SMILES COc1cc2nccc(Oc3ccc(NC(=O)Nc4cc(C)on4)c(Cl)c3)c2cc1OC
REMARK SMILES IDX 11 1 12 2 13 3 14 4 25 5 26 6 27 7 10 8 9 9 3 10 4 11 30 12
REMARK SMILES IDX 5 13 29 14 6 15 28 16 7 17 8 18 2 19 1 20 31 21 32 22 15 23
REMARK SMILES IDX 16 24 17 25 18 26 19 29 20 30 24 31 21 32 23 33 22 34
REMARK H PARENT 15 27 18 28
ROOT
ATOM      1  C   UNL     1     -35.423 153.658   6.772  1.00  0.00    +0.129 A 
ATOM      2  C   UNL     1     -36.789 153.877   6.948  1.00  0.00    +0.049 A 
ATOM      3  C   UNL     1     -37.413 154.967   6.328  1.00  0.00    +0.031 A 
ATOM      4  C   UNL     1     -36.679 155.853   5.537  1.00  0.00    +0.061 A 
ATOM      5  C   UNL     1     -35.294 155.634   5.397  1.00  0.00    +0.068 A 
ATOM      6 Cl   UNL     1     -34.316 156.708   4.452  1.00  0.00    -0.082 Cl
ATOM      7  C   UNL     1     -34.668 154.547   6.011  1.00  0.00    +0.069 A 
ENDROOT
BRANCH   1   8
ATOM      8  O   UNL     1     -34.734 152.626   7.372  1.00  0.00    -0.457 OA
BRANCH   8   9
ATOM      9  C   UNL     1     -35.098 151.339   7.033  1.00  0.00    +0.138 A 
ATOM     10  C   UNL     1     -35.731 148.419  10.003  1.00  0.00    +0.162 A 
ATOM     11  C   UNL     1     -35.837 148.125   8.639  1.00  0.00    +0.079 A 
ATOM     12  C   UNL     1     -35.400 149.723  10.406  1.00  0.00    +0.161 A 
ATOM     13  C   UNL     1     -35.624 149.086   7.661  1.00  0.00    +0.078 A 
ATOM     14  C   UNL     1     -35.185 150.701   9.433  1.00  0.00    +0.064 A 
ATOM     15  N   UNL     1     -35.740 148.728   6.369  1.00  0.00    -0.256 NA
ATOM     16  C   UNL     1     -35.295 150.394   8.058  1.00  0.00    +0.047 A 
ATOM     17  C   UNL     1     -35.521 149.663   5.419  1.00  0.00    +0.115 A 
ATOM     18  C   UNL     1     -35.192 150.972   5.694  1.00  0.00    +0.068 A 
BRANCH  10  19
ATOM     19  O   UNL     1     -35.930 147.508  11.012  1.00  0.00    -0.493 OA
ATOM     20  C   UNL     1     -35.000 146.440  11.129  1.00  0.00    +0.278 C 
ENDBRANCH  10  19
BRANCH  12  21
ATOM     21  O   UNL     1     -35.315 149.938  11.758  1.00  0.00    -0.493 OA
ATOM     22  C   UNL     1     -35.532 151.258  12.234  1.00  0.00    +0.278 C 
ENDBRANCH  12  21
ENDBRANCH   8   9
ENDBRANCH   1   8
BRANCH   4  23
ATOM     23  N   UNL     1     -37.249 156.976   4.890  1.00  0.00    -0.306 N 
ATOM     24  C   UNL     1     -37.840 157.027   3.634  1.00  0.00    +0.324 C 
ATOM     25  O   UNL     1     -37.885 156.086   2.855  1.00  0.00    -0.248 OA
ATOM     26  N   UNL     1     -38.368 158.286   3.407  1.00  0.00    -0.289 N 
ATOM     27  H   UNL     1     -37.063 157.861   5.343  1.00  0.00    +0.171 HD
ATOM     28  H   UNL     1     -38.438 158.925   4.180  1.00  0.00    +0.173 HD
BRANCH  26  29
ATOM     29  C   UNL     1     -38.958 158.691   2.224  1.00  0.00    +0.177 A 
ATOM     30  C   UNL     1     -40.329 159.041   2.118  1.00  0.00    +0.095 A 
ATOM     31  N   UNL     1     -38.351 158.828   1.043  1.00  0.00    -0.062 NA
ATOM     32  C   UNL     1     -40.501 159.386   0.801  1.00  0.00    +0.135 A 
ATOM     33  O   UNL     1     -39.315 159.259   0.154  1.00  0.00    -0.360 OA
ATOM     34  C   UNL     1     -41.644 159.842  -0.008  1.00  0.00    +0.091 C 
ENDBRANCH  26  29
ENDBRANCH   4  23
TORSDOF 6
ENDMDL
MODEL 8
REMARK VINA RESULT:    -8.359      2.752     11.002
REMARK INTER + INTRA:         -11.421
REMARK INTER:                 -10.921
REMARK INTRA:                  -0.500
REMARK UNBOUND:                -0.130
REMARK SMILES COc1cc2nccc(Oc3ccc(NC(=O)Nc4cc(C)on4)c(Cl)c3)c2cc1OC
REMARK SMILES IDX 11 1 12 2 13 3 14 4 25 5 26 6 27 7 10 8 9 9 3 10 4 11 30 12
REMARK SMILES IDX 5 13 29 14 6 15 28 16 7 17 8 18 2 19 1 20 31 21 32 22 15 23
REMARK SMILES IDX 16 24 17 25 18 26 19 29 20 30 24 31 21 32 23 33 22 34
REMARK H PARENT 15 27 18 28
ROOT
ATOM      1  C   UNL     1     -38.695 160.964  -1.030  1.00  0.00    +0.129 A 
ATOM      2  C   UNL     1     -38.471 159.810  -1.782  1.00  0.00    +0.049 A 
ATOM      3  C   UNL     1     -38.501 159.865  -3.182  1.00  0.00    +0.031 A 
ATOM      4  C   UNL     1     -38.765 161.068  -3.842  1.00  0.00    +0.061 A 
ATOM      5  C   UNL     1     -39.020 162.215  -3.065  1.00  0.00    +0.068 A 
ATOM      6 Cl   UNL     1     -39.380 163.735  -3.816  1.00  0.00    -0.082 Cl
ATOM      7  C   UNL     1     -38.989 162.165  -1.670  1.00  0.00    +0.069 A 
ENDROOT
BRANCH   1   8
ATOM      8  O   UNL     1     -38.710 160.982   0.347  1.00  0.00    -0.457 OA
BRANCH   8   9
ATOM      9  C   UNL     1     -39.636 160.178   0.982  1.00  0.00    +0.138 A 
ATOM     10  C   UNL     1     -38.407 157.180   3.674  1.00  0.00    +0.162 A 
ATOM     11  C   UNL     1     -39.754 157.379   3.350  1.00  0.00    +0.079 A 
ATOM     12  C   UNL     1     -37.425 157.994   3.087  1.00  0.00    +0.161 A 
ATOM     13  C   UNL     1     -40.158 158.365   2.461  1.00  0.00    +0.078 A 
ATOM     14  C   UNL     1     -37.818 158.990   2.190  1.00  0.00    +0.064 A 
ATOM     15  N   UNL     1     -41.470 158.495   2.196  1.00  0.00    -0.256 NA
ATOM     16  C   UNL     1     -39.181 159.185   1.871  1.00  0.00    +0.047 A 
ATOM     17  C   UNL     1     -41.860 159.448   1.320  1.00  0.00    +0.115 A 
ATOM     18  C   UNL     1     -40.989 160.304   0.683  1.00  0.00    +0.068 A 
BRANCH  10  19
ATOM     19  O   UNL     1     -37.952 156.220   4.547  1.00  0.00    -0.493 OA
ATOM     20  C   UNL     1     -37.612 154.949   4.010  1.00  0.00    +0.278 C 
ENDBRANCH  10  19
BRANCH  12  21
ATOM     21  O   UNL     1     -36.128 157.742   3.451  1.00  0.00    -0.493 OA
ATOM     22  C   UNL     1     -35.637 158.363   4.629  1.00  0.00    +0.278 C 
ENDBRANCH  12  21
ENDBRANCH   8   9
ENDBRANCH   1   8
BRANCH   4  23
ATOM     23  N   UNL     1     -38.816 161.188  -5.252  1.00  0.00    -0.306 N 
ATOM     24  C   UNL     1     -37.919 161.845  -6.084  1.00  0.00    +0.324 C 
ATOM     25  O   UNL     1     -36.964 162.499  -5.689  1.00  0.00    -0.248 OA
ATOM     26  N   UNL     1     -38.264 161.646  -7.410  1.00  0.00    -0.289 N 
ATOM     27  H   UNL     1     -39.686 160.885  -5.668  1.00  0.00    +0.171 HD
ATOM     28  H   UNL     1     -38.953 160.947  -7.626  1.00  0.00    +0.173 HD
BRANCH  26  29
ATOM     29  C   UNL     1     -37.620 162.225  -8.487  1.00  0.00    +0.177 A 
ATOM     30  C   UNL     1     -38.276 163.058  -9.429  1.00  0.00    +0.095 A 
ATOM     31  N   UNL     1     -36.324 162.110  -8.790  1.00  0.00    -0.062 NA
ATOM     32  C   UNL     1     -37.293 163.425 -10.315  1.00  0.00    +0.135 A 
ATOM     33  O   UNL     1     -36.121 162.856  -9.932  1.00  0.00    -0.360 OA
ATOM     34  C   UNL     1     -37.251 164.262 -11.525  1.00  0.00    +0.091 C 
ENDBRANCH  26  29
ENDBRANCH   4  23
TORSDOF 6
ENDMDL
MODEL 9
REMARK VINA RESULT:    -8.256      9.039     13.140
REMARK INTER + INTRA:         -11.282
REMARK INTER:                 -10.108
REMARK INTRA:                  -1.173
REMARK UNBOUND:                -0.130
REMARK SMILES COc1cc2nccc(Oc3ccc(NC(=O)Nc4cc(C)on4)c(Cl)c3)c2cc1OC
REMARK SMILES IDX 11 1 12 2 13 3 14 4 25 5 26 6 27 7 10 8 9 9 3 10 4 11 30 12
REMARK SMILES IDX 5 13 29 14 6 15 28 16 7 17 8 18 2 19 1 20 31 21 32 22 15 23
REMARK SMILES IDX 16 24 17 25 18 26 19 29 20 30 24 31 21 32 23 33 22 34
REMARK H PARENT 15 27 18 28
ROOT
ATOM      1  C   UNL     1     -38.723 151.449   5.678  1.00  0.00    +0.129 A 
ATOM      2  C   UNL     1     -38.658 151.541   4.288  1.00  0.00    +0.049 A 
ATOM      3  C   UNL     1     -39.357 150.628   3.488  1.00  0.00    +0.031 A 
ATOM      4  C   UNL     1     -40.118 149.610   4.067  1.00  0.00    +0.061 A 
ATOM      5  C   UNL     1     -40.147 149.514   5.473  1.00  0.00    +0.068 A 
ATOM      6 Cl   UNL     1     -41.048 148.261   6.260  1.00  0.00    -0.082 Cl
ATOM      7  C   UNL     1     -39.453 150.423   6.274  1.00  0.00    +0.069 A 
ENDROOT
BRANCH   1   8
ATOM      8  O   UNL     1     -38.041 152.291   6.529  1.00  0.00    -0.457 OA
BRANCH   8   9
ATOM      9  C   UNL     1     -36.670 152.357   6.390  1.00  0.00    +0.138 A 
ATOM     10  C   UNL     1     -34.813 155.840   4.916  1.00  0.00    +0.162 A 
ATOM     11  C   UNL     1     -34.083 154.693   5.245  1.00  0.00    +0.079 A 
ATOM     12  C   UNL     1     -36.209 155.841   5.074  1.00  0.00    +0.161 A 
ATOM     13  C   UNL     1     -34.695 153.544   5.727  1.00  0.00    +0.078 A 
ATOM     14  C   UNL     1     -36.838 154.693   5.559  1.00  0.00    +0.064 A 
ATOM     15  N   UNL     1     -33.927 152.479   6.018  1.00  0.00    -0.256 NA
ATOM     16  C   UNL     1     -36.091 153.540   5.889  1.00  0.00    +0.047 A 
ATOM     17  C   UNL     1     -34.527 151.358   6.477  1.00  0.00    +0.115 A 
ATOM     18  C   UNL     1     -35.886 151.242   6.671  1.00  0.00    +0.068 A 
BRANCH  10  19
ATOM     19  O   UNL     1     -34.260 157.002   4.435  1.00  0.00    -0.493 OA
ATOM     20  C   UNL     1     -33.047 157.449   5.027  1.00  0.00    +0.278 C 
ENDBRANCH  10  19
BRANCH  12  21
ATOM     21  O   UNL     1     -36.859 156.999   4.733  1.00  0.00    -0.493 OA
ATOM     22  C   UNL     1     -37.631 156.999   3.541  1.00  0.00    +0.278 C 
ENDBRANCH  12  21
ENDBRANCH   8   9
ENDBRANCH   1   8
BRANCH   4  23
ATOM     23  N   UNL     1     -40.842 148.653   3.315  1.00  0.00    -0.306 N 
ATOM     24  C   UNL     1     -40.343 147.550   2.635  1.00  0.00    +0.324 C 
ATOM     25  O   UNL     1     -39.153 147.285   2.529  1.00  0.00    -0.248 OA
ATOM     26  N   UNL     1     -41.383 146.804   2.108  1.00  0.00    -0.289 N 
ATOM     27  H   UNL     1     -41.806 148.900   3.139  1.00  0.00    +0.171 HD
ATOM     28  H   UNL     1     -42.320 147.009   2.408  1.00  0.00    +0.173 HD
BRANCH  26  29
ATOM     29  C   UNL     1     -41.225 145.685   1.312  1.00  0.00    +0.177 A 
ATOM     30  C   UNL     1     -41.019 145.750  -0.090  1.00  0.00    +0.095 A 
ATOM     31  N   UNL     1     -41.224 144.415   1.724  1.00  0.00    -0.062 NA
ATOM     32  C   UNL     1     -40.904 144.441  -0.487  1.00  0.00    +0.135 A 
ATOM     33  O   UNL     1     -41.027 143.638   0.601  1.00  0.00    -0.360 OA
ATOM     34  C   UNL     1     -40.685 143.767  -1.777  1.00  0.00    +0.091 C 
ENDBRANCH  26  29
ENDBRANCH   4  23
TORSDOF 6
ENDMDL
MODEL 10
REMARK VINA RESULT:    -7.949     10.535     14.797
REMARK INTER + INTRA:         -10.867
REMARK INTER:                  -9.775
REMARK INTRA:                  -1.093
REMARK UNBOUND:                -0.130
REMARK SMILES COc1cc2nccc(Oc3ccc(NC(=O)Nc4cc(C)on4)c(Cl)c3)c2cc1OC
REMARK SMILES IDX 11 1 12 2 13 3 14 4 25 5 26 6 27 7 10 8 9 9 3 10 4 11 30 12
REMARK SMILES IDX 5 13 29 14 6 15 28 16 7 17 8 18 2 19 1 20 31 21 32 22 15 23
REMARK SMILES IDX 16 24 17 25 18 26 19 29 20 30 24 31 21 32 23 33 22 34
REMARK H PARENT 15 27 18 28
ROOT
ATOM      1  C   UNL     1     -36.587 148.260   4.029  1.00  0.00    +0.129 A 
ATOM      2  C   UNL     1     -35.325 148.568   4.536  1.00  0.00    +0.049 A 
ATOM      3  C   UNL     1     -35.151 149.684   5.364  1.00  0.00    +0.031 A 
ATOM      4  C   UNL     1     -36.232 150.508   5.685  1.00  0.00    +0.061 A 
ATOM      5  C   UNL     1     -37.493 150.200   5.138  1.00  0.00    +0.068 A 
ATOM      6 Cl   UNL     1     -38.874 151.193   5.472  1.00  0.00    -0.082 Cl
ATOM      7  C   UNL     1     -37.672 149.087   4.313  1.00  0.00    +0.069 A 
ENDROOT
BRANCH   1   8
ATOM      8  O   UNL     1     -36.830 147.198   3.185  1.00  0.00    -0.457 OA
BRANCH   8   9
ATOM      9  C   UNL     1     -36.064 146.064   3.358  1.00  0.00    +0.138 A 
ATOM     10  C   UNL     1     -33.011 145.084   0.624  1.00  0.00    +0.162 A 
ATOM     11  C   UNL     1     -33.323 144.263   1.714  1.00  0.00    +0.079 A 
ATOM     12  C   UNL     1     -33.735 146.270   0.422  1.00  0.00    +0.161 A 
ATOM     13  C   UNL     1     -34.331 144.584   2.612  1.00  0.00    +0.078 A 
ATOM     14  C   UNL     1     -34.751 146.606   1.318  1.00  0.00    +0.064 A 
ATOM     15  N   UNL     1     -34.575 143.745   3.635  1.00  0.00    -0.256 NA
ATOM     16  C   UNL     1     -35.057 145.772   2.417  1.00  0.00    +0.047 A 
ATOM     17  C   UNL     1     -35.564 144.054   4.501  1.00  0.00    +0.115 A 
ATOM     18  C   UNL     1     -36.339 145.189   4.404  1.00  0.00    +0.068 A 
BRANCH  10  19
ATOM     19  O   UNL     1     -32.026 144.814  -0.295  1.00  0.00    -0.493 OA
ATOM     20  C   UNL     1     -30.740 144.467   0.200  1.00  0.00    +0.278 C 
ENDBRANCH  10  19
BRANCH  12  21
ATOM     21  O   UNL     1     -33.375 147.024  -0.666  1.00  0.00    -0.493 OA
ATOM     22  C   UNL     1     -34.274 147.075  -1.763  1.00  0.00    +0.278 C 
ENDBRANCH  12  21
ENDBRANCH   8   9
ENDBRANCH   1   8
BRANCH   4  23
ATOM     23  N   UNL     1     -36.121 151.653   6.511  1.00  0.00    -0.306 N 
ATOM     24  C   UNL     1     -35.891 152.966   6.120  1.00  0.00    +0.324 C 
ATOM     25  O   UNL     1     -35.671 153.314   4.969  1.00  0.00    -0.248 OA
ATOM     26  N   UNL     1     -35.952 153.807   7.218  1.00  0.00    -0.289 N 
ATOM     27  H   UNL     1     -36.055 151.453   7.500  1.00  0.00    +0.171 HD
ATOM     28  H   UNL     1     -36.318 153.445   8.081  1.00  0.00    +0.173 HD
BRANCH  26  29
ATOM     29  C   UNL     1     -35.695 155.165   7.185  1.00  0.00    +0.177 A 
ATOM     30  C   UNL     1     -36.707 156.145   7.019  1.00  0.00    +0.095 A 
ATOM     31  N   UNL     1     -34.501 155.748   7.317  1.00  0.00    -0.062 NA
ATOM     32  C   UNL     1     -36.041 157.344   7.052  1.00  0.00    +0.135 A 
ATOM     33  O   UNL     1     -34.716 157.108   7.231  1.00  0.00    -0.360 OA
ATOM     34  C   UNL     1     -36.446 158.756   6.941  1.00  0.00    +0.091 C 
ENDBRANCH  26  29
ENDBRANCH   4  23
TORSDOF 6
ENDMDL
