REMARK SMILES CN(C)c1ccc(/C=C2\C(=O)Nc3ccccc32)c2ccccc12
REMARK SMILES IDX 4 1 5 2 6 3 7 4 19 5 20 6 21 7 22 8 23 9 24 10 2 11 1 12
REMARK SMILES IDX 3 13 8 14 9 15 10 16 18 17 11 18 12 19 17 20 13 21 16 22
REMARK SMILES IDX 14 23 15 24
REMARK H PARENT 12 25
ROOT
ATOM      1  C   UNL     1      -2.958   0.097  -0.200  1.00  0.00    +0.044 A 
ATOM      2  C   UNL     1      -2.232   0.892  -1.099  1.00  0.00    +0.027 A 
ATOM      3  C   UNL     1      -0.865   0.702  -1.280  1.00  0.00    +0.011 A 
ATOM      4  C   UNL     1      -0.182  -0.280  -0.555  1.00  0.00    -0.017 A 
ATOM      5  C   UNL     1      -0.879  -1.104   0.367  1.00  0.00    -0.009 A 
ATOM      6  C   UNL     1      -0.238  -2.113   1.129  1.00  0.00    +0.009 A 
ATOM      7  C   UNL     1      -0.939  -2.921   2.024  1.00  0.00    +0.001 A 
ATOM      8  C   UNL     1      -2.304  -2.744   2.183  1.00  0.00    +0.001 A 
ATOM      9  C   UNL     1      -2.960  -1.755   1.450  1.00  0.00    +0.011 A 
ATOM     10  C   UNL     1      -2.278  -0.914   0.541  1.00  0.00    +0.006 A 
ENDROOT
BRANCH   1  11
ATOM     11  N   UNL     1      -4.348   0.315   0.015  1.00  0.00    -0.377 N 
ATOM     12  C   UNL     1      -4.548   1.385   0.999  1.00  0.00    +0.143 C 
ATOM     13  C   UNL     1      -5.138   0.463  -1.206  1.00  0.00    +0.143 C 
ENDBRANCH   1  11
BRANCH   4  14
ATOM     14  C   UNL     1       1.256  -0.451  -0.819  1.00  0.00    +0.023 C 
ATOM     15  C   UNL     1       2.229   0.392  -0.443  1.00  0.00    +0.050 C 
ATOM     16  C   UNL     1       2.089   1.687   0.321  1.00  0.00    +0.256 C 
ATOM     17  C   UNL     1       3.662   0.198  -0.696  1.00  0.00    +0.011 A 
ATOM     18  O   UNL     1       1.081   2.232   0.724  1.00  0.00    -0.269 OA
ATOM     19  N   UNL     1       3.388   2.153   0.469  1.00  0.00    -0.321 N 
ATOM     20  C   UNL     1       4.390  -0.786  -1.341  1.00  0.00    +0.011 A 
ATOM     21  C   UNL     1       4.310   1.294  -0.119  1.00  0.00    +0.049 A 
ATOM     22  C   UNL     1       5.781  -0.647  -1.395  1.00  0.00    +0.001 A 
ATOM     23  C   UNL     1       5.680   1.452  -0.159  1.00  0.00    +0.027 A 
ATOM     24  C   UNL     1       6.421   0.461  -0.809  1.00  0.00    +0.002 A 
ATOM     25  H   UNL     1       3.601   3.013   0.950  1.00  0.00    +0.170 HD
ENDBRANCH   4  14
TORSDOF 2
