MODEL 1
REMARK VINA RESULT:   -10.483      0.000      0.000
REMARK INTER + INTRA:         -10.561
REMARK INTER:                 -11.709
REMARK INTRA:                   1.148
REMARK UNBOUND:                 1.148
REMARK SMILES CN(C)c1ccc(/C=C2\C(=O)Nc3ccccc32)c2ccccc12
REMARK SMILES IDX 4 1 5 2 6 3 7 4 19 5 20 6 21 7 22 8 23 9 24 10 2 11 1 12
REMARK SMILES IDX 3 13 8 14 9 15 10 16 18 17 11 18 12 19 17 20 13 21 16 22
REMARK SMILES IDX 14 23 15 24
REMARK H PARENT 12 25
ROOT
ATOM      1  C   UNL     1      -9.870   5.628 -17.229  1.00  0.00    +0.044 A 
ATOM      2  C   UNL     1     -10.915   5.887 -16.330  1.00  0.00    +0.027 A 
ATOM      3  C   UNL     1     -11.187   5.017 -15.278  1.00  0.00    +0.011 A 
ATOM      4  C   UNL     1     -10.429   3.855 -15.103  1.00  0.00    -0.017 A 
ATOM      5  C   UNL     1      -9.364   3.554 -15.992  1.00  0.00    -0.009 A 
ATOM      6  C   UNL     1      -8.564   2.391 -15.863  1.00  0.00    +0.009 A 
ATOM      7  C   UNL     1      -7.515   2.114 -16.739  1.00  0.00    +0.001 A 
ATOM      8  C   UNL     1      -7.233   2.995 -17.771  1.00  0.00    +0.001 A 
ATOM      9  C   UNL     1      -8.007   4.146 -17.925  1.00  0.00    +0.011 A 
ATOM     10  C   UNL     1      -9.082   4.451 -17.059  1.00  0.00    +0.006 A 
ENDROOT
BRANCH   1  11
ATOM     11  N   UNL     1      -9.615   6.496 -18.328  1.00  0.00    -0.377 N 
ATOM     12  C   UNL     1     -10.638   6.317 -19.364  1.00  0.00    +0.143 C 
ATOM     13  C   UNL     1      -9.366   7.888 -17.960  1.00  0.00    +0.143 C 
ENDBRANCH   1  11
BRANCH   4  14
ATOM     14  C   UNL     1     -10.747   2.996 -13.951  1.00  0.00    +0.023 C 
ATOM     15  C   UNL     1     -11.952   2.867 -13.377  1.00  0.00    +0.050 C 
ATOM     16  C   UNL     1     -13.241   3.554 -13.762  1.00  0.00    +0.256 C 
ATOM     17  C   UNL     1     -12.259   1.991 -12.239  1.00  0.00    +0.011 A 
ATOM     18  O   UNL     1     -13.440   4.368 -14.642  1.00  0.00    -0.269 OA
ATOM     19  N   UNL     1     -14.185   3.060 -12.873  1.00  0.00    -0.321 N 
ATOM     20  C   UNL     1     -11.498   1.129 -11.469  1.00  0.00    +0.011 A 
ATOM     21  C   UNL     1     -13.624   2.150 -11.984  1.00  0.00    +0.049 A 
ATOM     22  C   UNL     1     -12.135   0.432 -10.437  1.00  0.00    +0.001 A 
ATOM     23  C   UNL     1     -14.274   1.473 -10.973  1.00  0.00    +0.027 A 
ATOM     24  C   UNL     1     -13.511   0.601 -10.191  1.00  0.00    +0.002 A 
ATOM     25  H   UNL     1     -15.151   3.347 -12.898  1.00  0.00    +0.170 HD
ENDBRANCH   4  14
TORSDOF 2
ENDMDL
MODEL 2
REMARK VINA RESULT:   -10.377      3.473      5.997
REMARK INTER + INTRA:         -10.442
REMARK INTER:                  -9.644
REMARK INTRA:                  -0.798
REMARK UNBOUND:                 1.148
REMARK SMILES CN(C)c1ccc(/C=C2\C(=O)Nc3ccccc32)c2ccccc12
REMARK SMILES IDX 4 1 5 2 6 3 7 4 19 5 20 6 21 7 22 8 23 9 24 10 2 11 1 12
REMARK SMILES IDX 3 13 8 14 9 15 10 16 18 17 11 18 12 19 17 20 13 21 16 22
REMARK SMILES IDX 14 23 15 24
REMARK H PARENT 12 25
ROOT
ATOM      1  C   UNL     1      -9.703   4.931 -16.865  1.00  0.00    +0.044 A 
ATOM      2  C   UNL     1      -8.633   4.466 -17.645  1.00  0.00    +0.027 A 
ATOM      3  C   UNL     1      -8.051   3.227 -17.396  1.00  0.00    +0.011 A 
ATOM      4  C   UNL     1      -8.514   2.422 -16.350  1.00  0.00    -0.017 A 
ATOM      5  C   UNL     1      -9.592   2.856 -15.535  1.00  0.00    -0.009 A 
ATOM      6  C   UNL     1     -10.101   2.083 -14.461  1.00  0.00    +0.009 A 
ATOM      7  C   UNL     1     -11.167   2.520 -13.676  1.00  0.00    +0.001 A 
ATOM      8  C   UNL     1     -11.759   3.744 -13.943  1.00  0.00    +0.001 A 
ATOM      9  C   UNL     1     -11.276   4.528 -14.990  1.00  0.00    +0.011 A 
ATOM     10  C   UNL     1     -10.191   4.119 -15.800  1.00  0.00    +0.006 A 
ENDROOT
BRANCH   1  11
ATOM     11  N   UNL     1     -10.273   6.215 -17.093  1.00  0.00    -0.377 N 
ATOM     12  C   UNL     1      -9.250   7.257 -16.956  1.00  0.00    +0.143 C 
ATOM     13  C   UNL     1     -11.078   6.317 -18.309  1.00  0.00    +0.143 C 
ENDBRANCH   1  11
BRANCH   4  14
ATOM     14  C   UNL     1      -7.877   1.108 -16.162  1.00  0.00    +0.023 C 
ATOM     15  C   UNL     1      -6.835   0.848 -15.359  1.00  0.00    +0.050 C 
ATOM     16  C   UNL     1      -6.081   1.815 -14.477  1.00  0.00    +0.256 C 
ATOM     17  C   UNL     1      -6.223  -0.472 -15.167  1.00  0.00    +0.011 A 
ATOM     18  O   UNL     1      -6.248   3.009 -14.334  1.00  0.00    -0.269 OA
ATOM     19  N   UNL     1      -5.119   1.040 -13.844  1.00  0.00    -0.321 N 
ATOM     20  C   UNL     1      -6.475  -1.725 -15.698  1.00  0.00    +0.011 A 
ATOM     21  C   UNL     1      -5.193  -0.291 -14.239  1.00  0.00    +0.049 A 
ATOM     22  C   UNL     1      -5.673  -2.791 -15.278  1.00  0.00    +0.001 A 
ATOM     23  C   UNL     1      -4.390  -1.328 -13.810  1.00  0.00    +0.027 A 
ATOM     24  C   UNL     1      -4.640  -2.596 -14.342  1.00  0.00    +0.002 A 
ATOM     25  H   UNL     1      -4.462   1.428 -13.185  1.00  0.00    +0.170 HD
ENDBRANCH   4  14
TORSDOF 2
ENDMDL
MODEL 3
REMARK VINA RESULT:   -10.216      3.315      5.658
REMARK INTER + INTRA:         -10.263
REMARK INTER:                  -9.474
REMARK INTRA:                  -0.788
REMARK UNBOUND:                 1.148
REMARK SMILES CN(C)c1ccc(/C=C2\C(=O)Nc3ccccc32)c2ccccc12
REMARK SMILES IDX 4 1 5 2 6 3 7 4 19 5 20 6 21 7 22 8 23 9 24 10 2 11 1 12
REMARK SMILES IDX 3 13 8 14 9 15 10 16 18 17 11 18 12 19 17 20 13 21 16 22
REMARK SMILES IDX 14 23 15 24
REMARK H PARENT 12 25
ROOT
ATOM      1  C   UNL     1      -9.549   5.249 -16.971  1.00  0.00    +0.044 A 
ATOM      2  C   UNL     1      -8.246   4.938 -17.386  1.00  0.00    +0.027 A 
ATOM      3  C   UNL     1      -7.485   3.992 -16.704  1.00  0.00    +0.011 A 
ATOM      4  C   UNL     1      -8.001   3.341 -15.579  1.00  0.00    -0.017 A 
ATOM      5  C   UNL     1      -9.315   3.629 -15.125  1.00  0.00    -0.009 A 
ATOM      6  C   UNL     1      -9.888   3.001 -13.991  1.00  0.00    +0.009 A 
ATOM      7  C   UNL     1     -11.184   3.289 -13.564  1.00  0.00    +0.001 A 
ATOM      8  C   UNL     1     -11.947   4.213 -14.259  1.00  0.00    +0.001 A 
ATOM      9  C   UNL     1     -11.406   4.850 -15.376  1.00  0.00    +0.011 A 
ATOM     10  C   UNL     1     -10.093   4.588 -15.831  1.00  0.00    +0.006 A 
ENDROOT
BRANCH   1  11
ATOM     11  N   UNL     1     -10.315   6.243 -17.643  1.00  0.00    -0.377 N 
ATOM     12  C   UNL     1      -9.593   7.521 -17.650  1.00  0.00    +0.143 C 
ATOM     13  C   UNL     1     -10.832   5.836 -18.948  1.00  0.00    +0.143 C 
ENDBRANCH   1  11
BRANCH   4  14
ATOM     14  C   UNL     1      -7.157   2.328 -14.926  1.00  0.00    +0.023 C 
ATOM     15  C   UNL     1      -7.091   1.029 -15.255  1.00  0.00    +0.050 C 
ATOM     16  C   UNL     1      -7.849   0.311 -16.346  1.00  0.00    +0.256 C 
ATOM     17  C   UNL     1      -6.229   0.034 -14.607  1.00  0.00    +0.011 A 
ATOM     18  O   UNL     1      -8.675   0.750 -17.120  1.00  0.00    -0.269 OA
ATOM     19  N   UNL     1      -7.403  -1.002 -16.280  1.00  0.00    -0.321 N 
ATOM     20  C   UNL     1      -5.325   0.095 -13.561  1.00  0.00    +0.011 A 
ATOM     21  C   UNL     1      -6.461  -1.173 -15.272  1.00  0.00    +0.049 A 
ATOM     22  C   UNL     1      -4.659  -1.081 -13.197  1.00  0.00    +0.001 A 
ATOM     23  C   UNL     1      -5.816  -2.345 -14.932  1.00  0.00    +0.027 A 
ATOM     24  C   UNL     1      -4.902  -2.290 -13.876  1.00  0.00    +0.002 A 
ATOM     25  H   UNL     1      -7.743  -1.719 -16.903  1.00  0.00    +0.170 HD
ENDBRANCH   4  14
TORSDOF 2
ENDMDL
MODEL 4
REMARK VINA RESULT:    -9.790      3.100      7.076
REMARK INTER + INTRA:          -9.787
REMARK INTER:                  -9.757
REMARK INTRA:                  -0.029
REMARK UNBOUND:                 1.148
REMARK SMILES CN(C)c1ccc(/C=C2\C(=O)Nc3ccccc32)c2ccccc12
REMARK SMILES IDX 4 1 5 2 6 3 7 4 19 5 20 6 21 7 22 8 23 9 24 10 2 11 1 12
REMARK SMILES IDX 3 13 8 14 9 15 10 16 18 17 11 18 12 19 17 20 13 21 16 22
REMARK SMILES IDX 14 23 15 24
REMARK H PARENT 12 25
ROOT
ATOM      1  C   UNL     1     -11.566   2.422 -13.703  1.00  0.00    +0.044 A 
ATOM      2  C   UNL     1     -11.121   1.120 -13.432  1.00  0.00    +0.027 A 
ATOM      3  C   UNL     1     -10.056   0.566 -14.136  1.00  0.00    +0.011 A 
ATOM      4  C   UNL     1      -9.414   1.295 -15.142  1.00  0.00    -0.017 A 
ATOM      5  C   UNL     1      -9.834   2.615 -15.450  1.00  0.00    -0.009 A 
ATOM      6  C   UNL     1      -9.222   3.399 -16.460  1.00  0.00    +0.009 A 
ATOM      7  C   UNL     1      -9.641   4.699 -16.743  1.00  0.00    +0.001 A 
ATOM      8  C   UNL     1     -10.686   5.254 -16.023  1.00  0.00    +0.001 A 
ATOM      9  C   UNL     1     -11.311   4.504 -15.027  1.00  0.00    +0.011 A 
ATOM     10  C   UNL     1     -10.916   3.182 -14.720  1.00  0.00    +0.006 A 
ENDROOT
BRANCH   1  11
ATOM     11  N   UNL     1     -12.679   2.976 -13.011  1.00  0.00    -0.377 N 
ATOM     12  C   UNL     1     -13.755   3.297 -13.955  1.00  0.00    +0.143 C 
ATOM     13  C   UNL     1     -13.111   2.213 -11.841  1.00  0.00    +0.143 C 
ENDBRANCH   1  11
BRANCH   4  14
ATOM     14  C   UNL     1      -8.273   0.663 -15.825  1.00  0.00    +0.023 C 
ATOM     15  C   UNL     1      -6.977   0.887 -15.559  1.00  0.00    +0.050 C 
ATOM     16  C   UNL     1      -6.390   1.817 -14.525  1.00  0.00    +0.256 C 
ATOM     17  C   UNL     1      -5.849   0.233 -16.235  1.00  0.00    +0.011 A 
ATOM     18  O   UNL     1      -6.962   2.558 -13.750  1.00  0.00    -0.269 OA
ATOM     19  N   UNL     1      -5.017   1.659 -14.645  1.00  0.00    -0.321 N 
ATOM     20  C   UNL     1      -5.761  -0.699 -17.254  1.00  0.00    +0.011 A 
ATOM     21  C   UNL     1      -4.692   0.740 -15.637  1.00  0.00    +0.049 A 
ATOM     22  C   UNL     1      -4.487  -1.111 -17.659  1.00  0.00    +0.001 A 
ATOM     23  C   UNL     1      -3.426   0.348 -16.019  1.00  0.00    +0.027 A 
ATOM     24  C   UNL     1      -3.330  -0.594 -17.048  1.00  0.00    +0.002 A 
ATOM     25  H   UNL     1      -4.363   2.164 -14.067  1.00  0.00    +0.170 HD
ENDBRANCH   4  14
TORSDOF 2
ENDMDL
MODEL 5
REMARK VINA RESULT:    -9.639      3.564      7.146
REMARK INTER + INTRA:          -9.618
REMARK INTER:                  -8.943
REMARK INTRA:                  -0.675
REMARK UNBOUND:                 1.148
REMARK SMILES CN(C)c1ccc(/C=C2\C(=O)Nc3ccccc32)c2ccccc12
REMARK SMILES IDX 4 1 5 2 6 3 7 4 19 5 20 6 21 7 22 8 23 9 24 10 2 11 1 12
REMARK SMILES IDX 3 13 8 14 9 15 10 16 18 17 11 18 12 19 17 20 13 21 16 22
REMARK SMILES IDX 14 23 15 24
REMARK H PARENT 12 25
ROOT
ATOM      1  C   UNL     1      -9.197   5.087 -17.032  1.00  0.00    +0.044 A 
ATOM      2  C   UNL     1      -8.107   5.215 -17.904  1.00  0.00    +0.027 A 
ATOM      3  C   UNL     1      -6.963   4.438 -17.739  1.00  0.00    +0.011 A 
ATOM      4  C   UNL     1      -6.873   3.521 -16.687  1.00  0.00    -0.017 A 
ATOM      5  C   UNL     1      -7.953   3.363 -15.780  1.00  0.00    -0.009 A 
ATOM      6  C   UNL     1      -7.916   2.451 -14.696  1.00  0.00    +0.009 A 
ATOM      7  C   UNL     1      -8.990   2.301 -13.819  1.00  0.00    +0.001 A 
ATOM      8  C   UNL     1     -10.135   3.059 -14.001  1.00  0.00    +0.001 A 
ATOM      9  C   UNL     1     -10.198   3.968 -15.057  1.00  0.00    +0.011 A 
ATOM     10  C   UNL     1      -9.124   4.151 -15.959  1.00  0.00    +0.006 A 
ENDROOT
BRANCH   1  11
ATOM     11  N   UNL     1     -10.352   5.907 -17.176  1.00  0.00    -0.377 N 
ATOM     12  C   UNL     1     -10.047   7.287 -16.780  1.00  0.00    +0.143 C 
ATOM     13  C   UNL     1     -11.030   5.785 -18.465  1.00  0.00    +0.143 C 
ENDBRANCH   1  11
BRANCH   4  14
ATOM     14  C   UNL     1      -5.650   2.708 -16.590  1.00  0.00    +0.023 C 
ATOM     15  C   UNL     1      -5.516   1.439 -17.002  1.00  0.00    +0.050 C 
ATOM     16  C   UNL     1      -6.560   0.560 -17.648  1.00  0.00    +0.256 C 
ATOM     17  C   UNL     1      -4.283   0.646 -16.917  1.00  0.00    +0.011 A 
ATOM     18  O   UNL     1      -7.721   0.811 -17.901  1.00  0.00    -0.269 OA
ATOM     19  N   UNL     1      -5.908  -0.640 -17.897  1.00  0.00    -0.321 N 
ATOM     20  C   UNL     1      -3.016   0.907 -16.428  1.00  0.00    +0.011 A 
ATOM     21  C   UNL     1      -4.583  -0.599 -17.476  1.00  0.00    +0.049 A 
ATOM     22  C   UNL     1      -2.056  -0.107 -16.511  1.00  0.00    +0.001 A 
ATOM     23  C   UNL     1      -3.654  -1.615 -17.569  1.00  0.00    +0.027 A 
ATOM     24  C   UNL     1      -2.371  -1.357 -17.077  1.00  0.00    +0.002 A 
ATOM     25  H   UNL     1      -6.368  -1.424 -18.332  1.00  0.00    +0.170 HD
ENDBRANCH   4  14
TORSDOF 2
ENDMDL
MODEL 6
REMARK VINA RESULT:    -9.632      3.258      7.808
REMARK INTER + INTRA:          -9.610
REMARK INTER:                  -8.871
REMARK INTRA:                  -0.740
REMARK UNBOUND:                 1.148
REMARK SMILES CN(C)c1ccc(/C=C2\C(=O)Nc3ccccc32)c2ccccc12
REMARK SMILES IDX 4 1 5 2 6 3 7 4 19 5 20 6 21 7 22 8 23 9 24 10 2 11 1 12
REMARK SMILES IDX 3 13 8 14 9 15 10 16 18 17 11 18 12 19 17 20 13 21 16 22
REMARK SMILES IDX 14 23 15 24
REMARK H PARENT 12 25
ROOT
ATOM      1  C   UNL     1     -11.974   0.355 -10.972  1.00  0.00    +0.044 A 
ATOM      2  C   UNL     1     -10.906  -0.515 -11.235  1.00  0.00    +0.027 A 
ATOM      3  C   UNL     1     -10.192  -0.432 -12.427  1.00  0.00    +0.011 A 
ATOM      4  C   UNL     1     -10.536   0.515 -13.397  1.00  0.00    -0.017 A 
ATOM      5  C   UNL     1     -11.613   1.412 -13.172  1.00  0.00    -0.009 A 
ATOM      6  C   UNL     1     -12.006   2.390 -14.119  1.00  0.00    +0.009 A 
ATOM      7  C   UNL     1     -13.060   3.271 -13.878  1.00  0.00    +0.001 A 
ATOM      8  C   UNL     1     -13.752   3.201 -12.680  1.00  0.00    +0.001 A 
ATOM      9  C   UNL     1     -13.390   2.244 -11.731  1.00  0.00    +0.011 A 
ATOM     10  C   UNL     1     -12.333   1.331 -11.948  1.00  0.00    +0.006 A 
ENDROOT
BRANCH   1  11
ATOM     11  N   UNL     1     -12.730   0.246  -9.771  1.00  0.00    -0.377 N 
ATOM     12  C   UNL     1     -13.630  -0.910  -9.840  1.00  0.00    +0.143 C 
ATOM     13  C   UNL     1     -11.939   0.323  -8.544  1.00  0.00    +0.143 C 
ENDBRANCH   1  11
BRANCH   4  14
ATOM     14  C   UNL     1      -9.719   0.572 -14.621  1.00  0.00    +0.023 C 
ATOM     15  C   UNL     1      -8.688   1.401 -14.838  1.00  0.00    +0.050 C 
ATOM     16  C   UNL     1      -8.130   2.450 -13.906  1.00  0.00    +0.256 C 
ATOM     17  C   UNL     1      -7.868   1.432 -16.056  1.00  0.00    +0.011 A 
ATOM     18  O   UNL     1      -8.510   2.768 -12.797  1.00  0.00    -0.269 OA
ATOM     19  N   UNL     1      -7.063   3.007 -14.598  1.00  0.00    -0.321 N 
ATOM     20  C   UNL     1      -7.897   0.719 -17.241  1.00  0.00    +0.011 A 
ATOM     21  C   UNL     1      -6.903   2.421 -15.849  1.00  0.00    +0.049 A 
ATOM     22  C   UNL     1      -6.937   1.019 -18.213  1.00  0.00    +0.001 A 
ATOM     23  C   UNL     1      -5.946   2.734 -16.792  1.00  0.00    +0.027 A 
ATOM     24  C   UNL     1      -5.970   2.016 -17.992  1.00  0.00    +0.002 A 
ATOM     25  H   UNL     1      -6.494   3.743 -14.210  1.00  0.00    +0.170 HD
ENDBRANCH   4  14
TORSDOF 2
ENDMDL
MODEL 7
REMARK VINA RESULT:    -9.348      2.086      3.635
REMARK INTER + INTRA:          -9.293
REMARK INTER:                 -10.832
REMARK INTRA:                   1.539
REMARK UNBOUND:                 1.148
REMARK SMILES CN(C)c1ccc(/C=C2\C(=O)Nc3ccccc32)c2ccccc12
REMARK SMILES IDX 4 1 5 2 6 3 7 4 19 5 20 6 21 7 22 8 23 9 24 10 2 11 1 12
REMARK SMILES IDX 3 13 8 14 9 15 10 16 18 17 11 18 12 19 17 20 13 21 16 22
REMARK SMILES IDX 14 23 15 24
REMARK H PARENT 12 25
ROOT
ATOM      1  C   UNL     1      -8.336   2.880 -16.750  1.00  0.00    +0.044 A 
ATOM      2  C   UNL     1      -8.457   1.718 -15.974  1.00  0.00    +0.027 A 
ATOM      3  C   UNL     1      -9.468   1.593 -15.025  1.00  0.00    +0.011 A 
ATOM      4  C   UNL     1     -10.379   2.634 -14.815  1.00  0.00    -0.017 A 
ATOM      5  C   UNL     1     -10.289   3.828 -15.578  1.00  0.00    -0.009 A 
ATOM      6  C   UNL     1     -11.184   4.915 -15.407  1.00  0.00    +0.009 A 
ATOM      7  C   UNL     1     -11.088   6.078 -16.171  1.00  0.00    +0.001 A 
ATOM      8  C   UNL     1     -10.095   6.188 -17.130  1.00  0.00    +0.001 A 
ATOM      9  C   UNL     1      -9.198   5.136 -17.317  1.00  0.00    +0.011 A 
ATOM     10  C   UNL     1      -9.262   3.948 -16.554  1.00  0.00    +0.006 A 
ENDROOT
BRANCH   1  11
ATOM     11  N   UNL     1      -7.281   3.026 -17.693  1.00  0.00    -0.377 N 
ATOM     12  C   UNL     1      -6.171   3.781 -17.100  1.00  0.00    +0.143 C 
ATOM     13  C   UNL     1      -6.881   1.786 -18.357  1.00  0.00    +0.143 C 
ENDBRANCH   1  11
BRANCH   4  14
ATOM     14  C   UNL     1     -11.444   2.424 -13.821  1.00  0.00    +0.023 C 
ATOM     15  C   UNL     1     -11.392   1.576 -12.782  1.00  0.00    +0.050 C 
ATOM     16  C   UNL     1     -10.259   0.657 -12.393  1.00  0.00    +0.256 C 
ATOM     17  C   UNL     1     -12.454   1.391 -11.786  1.00  0.00    +0.011 A 
ATOM     18  O   UNL     1      -9.191   0.483 -12.944  1.00  0.00    -0.269 OA
ATOM     19  N   UNL     1     -10.701   0.019 -11.241  1.00  0.00    -0.321 N 
ATOM     20  C   UNL     1     -13.710   1.947 -11.621  1.00  0.00    +0.011 A 
ATOM     21  C   UNL     1     -11.976   0.440 -10.881  1.00  0.00    +0.049 A 
ATOM     22  C   UNL     1     -14.477   1.528 -10.528  1.00  0.00    +0.001 A 
ATOM     23  C   UNL     1     -12.713   0.012  -9.796  1.00  0.00    +0.027 A 
ATOM     24  C   UNL     1     -13.983   0.570  -9.623  1.00  0.00    +0.002 A 
ATOM     25  H   UNL     1     -10.140  -0.660 -10.752  1.00  0.00    +0.170 HD
ENDBRANCH   4  14
TORSDOF 2
ENDMDL
MODEL 8
REMARK VINA RESULT:    -9.347      3.610      9.380
REMARK INTER + INTRA:          -9.292
REMARK INTER:                  -8.664
REMARK INTRA:                  -0.628
REMARK UNBOUND:                 1.148
REMARK SMILES CN(C)c1ccc(/C=C2\C(=O)Nc3ccccc32)c2ccccc12
REMARK SMILES IDX 4 1 5 2 6 3 7 4 19 5 20 6 21 7 22 8 23 9 24 10 2 11 1 12
REMARK SMILES IDX 3 13 8 14 9 15 10 16 18 17 11 18 12 19 17 20 13 21 16 22
REMARK SMILES IDX 14 23 15 24
REMARK H PARENT 12 25
ROOT
ATOM      1  C   UNL     1     -13.455  -2.015  -7.397  1.00  0.00    +0.044 A 
ATOM      2  C   UNL     1     -13.100  -0.667  -7.245  1.00  0.00    +0.027 A 
ATOM      3  C   UNL     1     -12.502   0.038  -8.286  1.00  0.00    +0.011 A 
ATOM      4  C   UNL     1     -12.229  -0.592  -9.505  1.00  0.00    -0.017 A 
ATOM      5  C   UNL     1     -12.570  -1.956  -9.699  1.00  0.00    -0.009 A 
ATOM      6  C   UNL     1     -12.315  -2.644 -10.912  1.00  0.00    +0.009 A 
ATOM      7  C   UNL     1     -12.665  -3.982 -11.090  1.00  0.00    +0.001 A 
ATOM      8  C   UNL     1     -13.282  -4.673 -10.059  1.00  0.00    +0.001 A 
ATOM      9  C   UNL     1     -13.540  -4.022  -8.852  1.00  0.00    +0.011 A 
ATOM     10  C   UNL     1     -13.191  -2.669  -8.636  1.00  0.00    +0.006 A 
ENDROOT
BRANCH   1  11
ATOM     11  N   UNL     1     -14.031  -2.748  -6.321  1.00  0.00    -0.377 N 
ATOM     12  C   UNL     1     -13.024  -3.009  -5.287  1.00  0.00    +0.143 C 
ATOM     13  C   UNL     1     -15.288  -2.200  -5.814  1.00  0.00    +0.143 C 
ENDBRANCH   1  11
BRANCH   4  14
ATOM     14  C   UNL     1     -11.626   0.220 -10.575  1.00  0.00    +0.023 C 
ATOM     15  C   UNL     1     -12.267   1.124 -11.331  1.00  0.00    +0.050 C 
ATOM     16  C   UNL     1     -13.724   1.517 -11.270  1.00  0.00    +0.256 C 
ATOM     17  C   UNL     1     -11.648   1.941 -12.382  1.00  0.00    +0.011 A 
ATOM     18  O   UNL     1     -14.603   1.085 -10.551  1.00  0.00    -0.269 OA
ATOM     19  N   UNL     1     -13.867   2.499 -12.240  1.00  0.00    -0.321 N 
ATOM     20  C   UNL     1     -10.364   2.025 -12.889  1.00  0.00    +0.011 A 
ATOM     21  C   UNL     1     -12.665   2.753 -12.892  1.00  0.00    +0.049 A 
ATOM     22  C   UNL     1     -10.122   2.941 -13.919  1.00  0.00    +0.001 A 
ATOM     23  C   UNL     1     -12.450   3.663 -13.906  1.00  0.00    +0.027 A 
ATOM     24  C   UNL     1     -11.154   3.753 -14.423  1.00  0.00    +0.002 A 
ATOM     25  H   UNL     1     -14.749   2.953 -12.422  1.00  0.00    +0.170 HD
ENDBRANCH   4  14
TORSDOF 2
ENDMDL
MODEL 9
REMARK VINA RESULT:    -9.262      3.572      9.636
REMARK INTER + INTRA:          -9.197
REMARK INTER:                  -8.446
REMARK INTRA:                  -0.751
REMARK UNBOUND:                 1.148
REMARK SMILES CN(C)c1ccc(/C=C2\C(=O)Nc3ccccc32)c2ccccc12
REMARK SMILES IDX 4 1 5 2 6 3 7 4 19 5 20 6 21 7 22 8 23 9 24 10 2 11 1 12
REMARK SMILES IDX 3 13 8 14 9 15 10 16 18 17 11 18 12 19 17 20 13 21 16 22
REMARK SMILES IDX 14 23 15 24
REMARK H PARENT 12 25
ROOT
ATOM      1  C   UNL     1     -13.864  -2.270  -7.611  1.00  0.00    +0.044 A 
ATOM      2  C   UNL     1     -13.978  -2.551  -8.981  1.00  0.00    +0.027 A 
ATOM      3  C   UNL     1     -13.319  -1.772  -9.928  1.00  0.00    +0.011 A 
ATOM      4  C   UNL     1     -12.539  -0.680  -9.533  1.00  0.00    -0.017 A 
ATOM      5  C   UNL     1     -12.401  -0.360  -8.157  1.00  0.00    -0.009 A 
ATOM      6  C   UNL     1     -11.625   0.735  -7.700  1.00  0.00    +0.009 A 
ATOM      7  C   UNL     1     -11.491   1.031  -6.343  1.00  0.00    +0.001 A 
ATOM      8  C   UNL     1     -12.130   0.239  -5.403  1.00  0.00    +0.001 A 
ATOM      9  C   UNL     1     -12.904  -0.842  -5.824  1.00  0.00    +0.011 A 
ATOM     10  C   UNL     1     -13.067  -1.165  -7.191  1.00  0.00    +0.006 A 
ENDROOT
BRANCH   1  11
ATOM     11  N   UNL     1     -14.568  -3.040  -6.643  1.00  0.00    -0.377 N 
ATOM     12  C   UNL     1     -16.010  -2.996  -6.910  1.00  0.00    +0.143 C 
ATOM     13  C   UNL     1     -14.035  -4.385  -6.430  1.00  0.00    +0.143 C 
ENDBRANCH   1  11
BRANCH   4  14
ATOM     14  C   UNL     1     -11.842   0.080 -10.583  1.00  0.00    +0.023 C 
ATOM     15  C   UNL     1     -12.370   1.071 -11.316  1.00  0.00    +0.050 C 
ATOM     16  C   UNL     1     -13.771   1.632 -11.245  1.00  0.00    +0.256 C 
ATOM     17  C   UNL     1     -11.656   1.835 -12.347  1.00  0.00    +0.011 A 
ATOM     18  O   UNL     1     -14.696   1.289 -10.537  1.00  0.00    -0.269 OA
ATOM     19  N   UNL     1     -13.794   2.647 -12.190  1.00  0.00    -0.321 N 
ATOM     20  C   UNL     1     -10.370   1.780 -12.852  1.00  0.00    +0.011 A 
ATOM     21  C   UNL     1     -12.569   2.774 -12.837  1.00  0.00    +0.049 A 
ATOM     22  C   UNL     1     -10.019   2.685 -13.859  1.00  0.00    +0.001 A 
ATOM     23  C   UNL     1     -12.246   3.677 -13.828  1.00  0.00    +0.027 A 
ATOM     24  C   UNL     1     -10.947   3.626 -14.343  1.00  0.00    +0.002 A 
ATOM     25  H   UNL     1     -14.616   3.206 -12.362  1.00  0.00    +0.170 HD
ENDBRANCH   4  14
TORSDOF 2
ENDMDL
MODEL 10
REMARK VINA RESULT:    -8.912      2.919      6.536
REMARK INTER + INTRA:          -8.806
REMARK INTER:                  -9.716
REMARK INTRA:                   0.910
REMARK UNBOUND:                 1.148
REMARK SMILES CN(C)c1ccc(/C=C2\C(=O)Nc3ccccc32)c2ccccc12
REMARK SMILES IDX 4 1 5 2 6 3 7 4 19 5 20 6 21 7 22 8 23 9 24 10 2 11 1 12
REMARK SMILES IDX 3 13 8 14 9 15 10 16 18 17 11 18 12 19 17 20 13 21 16 22
REMARK SMILES IDX 14 23 15 24
REMARK H PARENT 12 25
ROOT
ATOM      1  C   UNL     1     -11.526   3.895 -14.244  1.00  0.00    +0.044 A 
ATOM      2  C   UNL     1     -10.856   2.899 -13.518  1.00  0.00    +0.027 A 
ATOM      3  C   UNL     1      -9.588   2.468 -13.896  1.00  0.00    +0.011 A 
ATOM      4  C   UNL     1      -8.958   3.012 -15.020  1.00  0.00    -0.017 A 
ATOM      5  C   UNL     1      -9.602   4.020 -15.784  1.00  0.00    -0.009 A 
ATOM      6  C   UNL     1      -9.013   4.606 -16.932  1.00  0.00    +0.009 A 
ATOM      7  C   UNL     1      -9.655   5.603 -17.666  1.00  0.00    +0.001 A 
ATOM      8  C   UNL     1     -10.907   6.045 -17.272  1.00  0.00    +0.001 A 
ATOM      9  C   UNL     1     -11.514   5.483 -16.149  1.00  0.00    +0.011 A 
ATOM     10  C   UNL     1     -10.894   4.465 -15.388  1.00  0.00    +0.006 A 
ENDROOT
BRANCH   1  11
ATOM     11  N   UNL     1     -12.838   4.309 -13.882  1.00  0.00    -0.377 N 
ATOM     12  C   UNL     1     -13.662   4.493 -15.083  1.00  0.00    +0.143 C 
ATOM     13  C   UNL     1     -13.466   3.502 -12.838  1.00  0.00    +0.143 C 
ENDBRANCH   1  11
BRANCH   4  14
ATOM     14  C   UNL     1      -7.603   2.536 -15.345  1.00  0.00    +0.023 C 
ATOM     15  C   UNL     1      -7.277   1.289 -15.715  1.00  0.00    +0.050 C 
ATOM     16  C   UNL     1      -8.195   0.102 -15.883  1.00  0.00    +0.256 C 
ATOM     17  C   UNL     1      -5.923   0.834 -16.055  1.00  0.00    +0.011 A 
ATOM     18  O   UNL     1      -9.393   0.030 -15.699  1.00  0.00    -0.269 OA
ATOM     19  N   UNL     1      -7.366  -0.931 -16.298  1.00  0.00    -0.321 N 
ATOM     20  C   UNL     1      -4.689   1.458 -16.085  1.00  0.00    +0.011 A 
ATOM     21  C   UNL     1      -6.043  -0.515 -16.401  1.00  0.00    +0.049 A 
ATOM     22  C   UNL     1      -3.577   0.700 -16.469  1.00  0.00    +0.001 A 
ATOM     23  C   UNL     1      -4.961  -1.282 -16.783  1.00  0.00    +0.027 A 
ATOM     24  C   UNL     1      -3.711  -0.657 -16.815  1.00  0.00    +0.002 A 
ATOM     25  H   UNL     1      -7.714  -1.857 -16.492  1.00  0.00    +0.170 HD
ENDBRANCH   4  14
TORSDOF 2
ENDMDL
