MODEL 1
REMARK VINA RESULT:   -10.353      0.000      0.000
REMARK INTER + INTRA:         -14.473
REMARK INTER:                 -13.984
REMARK INTRA:                  -0.488
REMARK UNBOUND:                -0.488
REMARK SMILES COc1cc2nccc(Oc3ccc(NC(=O)NC4CC4)c(Cl)c3)c2cc1C(N)=O
REMARK SMILES IDX 10 1 9 2 3 3 4 4 27 5 5 6 26 7 6 8 25 9 7 10 8 11 2 12 1 13
REMARK SMILES IDX 28 14 29 15 30 16 11 19 12 20 24 21 13 22 22 23 14 24 23 25
REMARK SMILES IDX 15 26 16 27 17 28 18 29 19 32 20 33 21 34
REMARK H PARENT 29 17 29 18 15 30 18 31
ROOT
ATOM      1  O   UNL     1     -39.186 160.454  -3.249  1.00  0.00    -0.457 OA
ENDROOT
BRANCH   1   2
ATOM      2  C   UNL     1     -38.955 161.814  -3.193  1.00  0.00    +0.138 A 
ATOM      3  C   UNL     1     -37.854 163.972  -6.662  1.00  0.00    +0.133 A 
ATOM      4  C   UNL     1     -38.043 164.590  -5.415  1.00  0.00    +0.076 A 
ATOM      5  C   UNL     1     -38.042 162.582  -6.765  1.00  0.00    +0.082 A 
ATOM      6  C   UNL     1     -38.408 163.883  -4.275  1.00  0.00    +0.078 A 
ATOM      7  C   UNL     1     -38.411 161.859  -5.619  1.00  0.00    +0.032 A 
ATOM      8  N   UNL     1     -38.568 164.556  -3.122  1.00  0.00    -0.256 NA
ATOM      9  C   UNL     1     -38.595 162.495  -4.373  1.00  0.00    +0.044 A 
ATOM     10  C   UNL     1     -38.938 163.867  -2.020  1.00  0.00    +0.115 A 
ATOM     11  C   UNL     1     -39.148 162.506  -2.003  1.00  0.00    +0.068 A 
BRANCH   3  12
ATOM     12  O   UNL     1     -37.490 164.660  -7.793  1.00  0.00    -0.496 OA
ATOM     13  C   UNL     1     -38.234 165.825  -8.138  1.00  0.00    +0.278 C 
ENDBRANCH   3  12
BRANCH   5  14
ATOM     14  C   UNL     1     -37.877 161.782  -8.021  1.00  0.00    +0.252 C 
ATOM     15  N   UNL     1     -38.417 162.263  -9.176  1.00  0.00    -0.365 N 
ATOM     16  O   UNL     1     -37.271 160.716  -8.027  1.00  0.00    -0.269 OA
ATOM     17  H   UNL     1     -38.889 163.159  -9.208  1.00  0.00    +0.159 HD
ATOM     18  H   UNL     1     -38.283 161.737 -10.027  1.00  0.00    +0.159 HD
ENDBRANCH   5  14
ENDBRANCH   1   2
BRANCH   1  19
ATOM     19  C   UNL     1     -39.225 159.784  -2.047  1.00  0.00    +0.129 A 
ATOM     20  C   UNL     1     -38.197 158.875  -1.799  1.00  0.00    +0.049 A 
ATOM     21  C   UNL     1     -40.194 160.026  -1.075  1.00  0.00    +0.069 A 
ATOM     22  C   UNL     1     -38.153 158.172  -0.590  1.00  0.00    +0.031 A 
ATOM     23  C   UNL     1     -40.144 159.324   0.132  1.00  0.00    +0.068 A 
ATOM     24  C   UNL     1     -39.124 158.387   0.392  1.00  0.00    +0.061 A 
ATOM     25 Cl   UNL     1     -41.378 159.642   1.307  1.00  0.00    -0.082 Cl
BRANCH  24  26
ATOM     26  N   UNL     1     -39.138 157.705   1.632  1.00  0.00    -0.307 N 
ATOM     27  C   UNL     1     -38.153 157.668   2.595  1.00  0.00    +0.319 C 
ATOM     28  O   UNL     1     -37.089 158.274   2.570  1.00  0.00    -0.248 OA
ATOM     29  N   UNL     1     -38.524 156.847   3.649  1.00  0.00    -0.335 N 
ATOM     30  H   UNL     1     -40.025 157.287   1.879  1.00  0.00    +0.171 HD
ATOM     31  H   UNL     1     -39.219 156.143   3.451  1.00  0.00    +0.165 HD
BRANCH  29  32
ATOM     32  C   UNL     1     -37.648 156.608   4.756  1.00  0.00    +0.084 C 
ATOM     33  C   UNL     1     -36.616 155.516   4.694  1.00  0.00    +0.027 C 
ATOM     34  C   UNL     1     -37.803 155.373   5.601  1.00  0.00    +0.027 C 
ENDBRANCH  29  32
ENDBRANCH  24  26
ENDBRANCH   1  19
TORSDOF 6
ENDMDL
MODEL 2
REMARK VINA RESULT:    -8.991      1.389      1.534
REMARK INTER + INTRA:         -12.633
REMARK INTER:                 -12.617
REMARK INTRA:                  -0.016
REMARK UNBOUND:                -0.488
REMARK SMILES COc1cc2nccc(Oc3ccc(NC(=O)NC4CC4)c(Cl)c3)c2cc1C(N)=O
REMARK SMILES IDX 10 1 9 2 3 3 4 4 27 5 5 6 26 7 6 8 25 9 7 10 8 11 2 12 1 13
REMARK SMILES IDX 28 14 29 15 30 16 11 19 12 20 24 21 13 22 22 23 14 24 23 25
REMARK SMILES IDX 15 26 16 27 17 28 18 29 19 32 20 33 21 34
REMARK H PARENT 29 17 29 18 15 30 18 31
ROOT
ATOM      1  O   UNL     1     -39.470 161.227  -4.087  1.00  0.00    -0.457 OA
ENDROOT
BRANCH   1   2
ATOM      2  C   UNL     1     -39.115 162.558  -4.172  1.00  0.00    +0.138 A 
ATOM      3  C   UNL     1     -37.697 164.196  -7.806  1.00  0.00    +0.133 A 
ATOM      4  C   UNL     1     -37.871 164.968  -6.646  1.00  0.00    +0.076 A 
ATOM      5  C   UNL     1     -38.010 162.826  -7.762  1.00  0.00    +0.082 A 
ATOM      6  C   UNL     1     -38.341 164.432  -5.452  1.00  0.00    +0.078 A 
ATOM      7  C   UNL     1     -38.484 162.275  -6.560  1.00  0.00    +0.032 A 
ATOM      8  N   UNL     1     -38.477 165.245  -4.390  1.00  0.00    -0.256 NA
ATOM      9  C   UNL     1     -38.653 163.064  -5.403  1.00  0.00    +0.044 A 
ATOM     10  C   UNL     1     -38.949 164.723  -3.236  1.00  0.00    +0.115 A 
ATOM     11  C   UNL     1     -39.285 163.398  -3.077  1.00  0.00    +0.068 A 
BRANCH   3  12
ATOM     12  O   UNL     1     -37.231 164.714  -8.989  1.00  0.00    -0.496 OA
ATOM     13  C   UNL     1     -37.963 165.778  -9.590  1.00  0.00    +0.278 C 
ENDBRANCH   3  12
BRANCH   5  14
ATOM     14  C   UNL     1     -37.875 161.875  -8.912  1.00  0.00    +0.252 C 
ATOM     15  N   UNL     1     -38.590 162.119 -10.047  1.00  0.00    -0.365 N 
ATOM     16  O   UNL     1     -37.143 160.894  -8.850  1.00  0.00    -0.269 OA
ATOM     17  H   UNL     1     -39.173 162.942 -10.139  1.00  0.00    +0.159 HD
ATOM     18  H   UNL     1     -38.479 161.492 -10.831  1.00  0.00    +0.159 HD
ENDBRANCH   5  14
ENDBRANCH   1   2
BRANCH   1  19
ATOM     19  C   UNL     1     -39.090 160.558  -2.945  1.00  0.00    +0.129 A 
ATOM     20  C   UNL     1     -38.668 159.237  -3.100  1.00  0.00    +0.049 A 
ATOM     21  C   UNL     1     -39.052 161.161  -1.689  1.00  0.00    +0.069 A 
ATOM     22  C   UNL     1     -38.242 158.498  -1.991  1.00  0.00    +0.031 A 
ATOM     23  C   UNL     1     -38.622 160.419  -0.586  1.00  0.00    +0.068 A 
ATOM     24  C   UNL     1     -38.213 159.078  -0.720  1.00  0.00    +0.061 A 
ATOM     25 Cl   UNL     1     -38.608 161.202   0.961  1.00  0.00    -0.082 Cl
BRANCH  24  26
ATOM     26  N   UNL     1     -37.798 158.382   0.440  1.00  0.00    -0.307 N 
ATOM     27  C   UNL     1     -38.559 158.003   1.525  1.00  0.00    +0.319 C 
ATOM     28  O   UNL     1     -39.766 158.158   1.655  1.00  0.00    -0.248 OA
ATOM     29  N   UNL     1     -37.775 157.383   2.485  1.00  0.00    -0.335 N 
ATOM     30  H   UNL     1     -36.850 158.031   0.411  1.00  0.00    +0.171 HD
ATOM     31  H   UNL     1     -36.788 157.593   2.469  1.00  0.00    +0.165 HD
BRANCH  29  32
ATOM     32  C   UNL     1     -38.327 156.937   3.729  1.00  0.00    +0.084 C 
ATOM     33  C   UNL     1     -37.538 157.057   5.004  1.00  0.00    +0.027 C 
ATOM     34  C   UNL     1     -37.791 155.705   4.406  1.00  0.00    +0.027 C 
ENDBRANCH  29  32
ENDBRANCH  24  26
ENDBRANCH   1  19
TORSDOF 6
ENDMDL
MODEL 3
REMARK VINA RESULT:    -8.857      3.046     11.421
REMARK INTER + INTRA:         -12.452
REMARK INTER:                 -11.791
REMARK INTRA:                  -0.660
REMARK UNBOUND:                -0.488
REMARK SMILES COc1cc2nccc(Oc3ccc(NC(=O)NC4CC4)c(Cl)c3)c2cc1C(N)=O
REMARK SMILES IDX 10 1 9 2 3 3 4 4 27 5 5 6 26 7 6 8 25 9 7 10 8 11 2 12 1 13
REMARK SMILES IDX 28 14 29 15 30 16 11 19 12 20 24 21 13 22 22 23 14 24 23 25
REMARK SMILES IDX 15 26 16 27 17 28 18 29 19 32 20 33 21 34
REMARK H PARENT 29 17 29 18 15 30 18 31
ROOT
ATOM      1  O   UNL     1     -38.755 156.901   3.819  1.00  0.00    -0.457 OA
ENDROOT
BRANCH   1   2
ATOM      2  C   UNL     1     -37.622 157.072   4.590  1.00  0.00    +0.138 A 
ATOM      3  C   UNL     1     -35.709 153.759   6.396  1.00  0.00    +0.133 A 
ATOM      4  C   UNL     1     -35.217 155.069   6.508  1.00  0.00    +0.076 A 
ATOM      5  C   UNL     1     -36.880 153.535   5.651  1.00  0.00    +0.082 A 
ATOM      6  C   UNL     1     -35.843 156.159   5.912  1.00  0.00    +0.078 A 
ATOM      7  C   UNL     1     -37.520 154.630   5.046  1.00  0.00    +0.032 A 
ATOM      8  N   UNL     1     -35.302 157.379   6.071  1.00  0.00    -0.256 NA
ATOM      9  C   UNL     1     -37.014 155.941   5.169  1.00  0.00    +0.044 A 
ATOM     10  C   UNL     1     -35.905 158.433   5.478  1.00  0.00    +0.115 A 
ATOM     11  C   UNL     1     -37.055 158.334   4.727  1.00  0.00    +0.068 A 
BRANCH   3  12
ATOM     12  O   UNL     1     -35.101 152.676   6.983  1.00  0.00    -0.496 OA
ATOM     13  C   UNL     1     -33.827 152.274   6.490  1.00  0.00    +0.278 C 
ENDBRANCH   3  12
BRANCH   5  14
ATOM     14  C   UNL     1     -37.526 152.200   5.443  1.00  0.00    +0.252 C 
ATOM     15  N   UNL     1     -36.801 151.211   4.849  1.00  0.00    -0.365 N 
ATOM     16  O   UNL     1     -38.682 151.985   5.793  1.00  0.00    -0.269 OA
ATOM     17  H   UNL     1     -35.833 151.348   4.585  1.00  0.00    +0.159 HD
ATOM     18  H   UNL     1     -37.228 150.303   4.732  1.00  0.00    +0.159 HD
ENDBRANCH   5  14
ENDBRANCH   1   2
BRANCH   1  19
ATOM     19  C   UNL     1     -38.918 157.766   2.760  1.00  0.00    +0.129 A 
ATOM     20  C   UNL     1     -37.817 157.951   1.923  1.00  0.00    +0.049 A 
ATOM     21  C   UNL     1     -40.129 158.392   2.471  1.00  0.00    +0.069 A 
ATOM     22  C   UNL     1     -37.910 158.795   0.811  1.00  0.00    +0.031 A 
ATOM     23  C   UNL     1     -40.218 159.231   1.357  1.00  0.00    +0.068 A 
ATOM     24  C   UNL     1     -39.111 159.446   0.513  1.00  0.00    +0.061 A 
ATOM     25 Cl   UNL     1     -41.737 160.004   1.044  1.00  0.00    -0.082 Cl
BRANCH  24  26
ATOM     26  N   UNL     1     -39.268 160.316  -0.593  1.00  0.00    -0.307 N 
ATOM     27  C   UNL     1     -39.102 160.031  -1.931  1.00  0.00    +0.319 C 
ATOM     28  O   UNL     1     -38.836 158.938  -2.414  1.00  0.00    -0.248 OA
ATOM     29  N   UNL     1     -39.298 161.165  -2.704  1.00  0.00    -0.335 N 
ATOM     30  H   UNL     1     -39.653 161.224  -0.370  1.00  0.00    +0.171 HD
ATOM     31  H   UNL     1     -39.175 162.054  -2.244  1.00  0.00    +0.165 HD
BRANCH  29  32
ATOM     32  C   UNL     1     -39.139 161.138  -4.127  1.00  0.00    +0.084 C 
ATOM     33  C   UNL     1     -37.799 161.411  -4.752  1.00  0.00    +0.027 C 
ATOM     34  C   UNL     1     -38.909 162.410  -4.896  1.00  0.00    +0.027 C 
ENDBRANCH  29  32
ENDBRANCH  24  26
ENDBRANCH   1  19
TORSDOF 6
ENDMDL
MODEL 4
REMARK VINA RESULT:    -8.822      3.584      6.662
REMARK INTER + INTRA:         -12.405
REMARK INTER:                 -11.362
REMARK INTRA:                  -1.043
REMARK UNBOUND:                -0.488
REMARK SMILES COc1cc2nccc(Oc3ccc(NC(=O)NC4CC4)c(Cl)c3)c2cc1C(N)=O
REMARK SMILES IDX 10 1 9 2 3 3 4 4 27 5 5 6 26 7 6 8 25 9 7 10 8 11 2 12 1 13
REMARK SMILES IDX 28 14 29 15 30 16 11 19 12 20 24 21 13 22 22 23 14 24 23 25
REMARK SMILES IDX 15 26 16 27 17 28 18 29 19 32 20 33 21 34
REMARK H PARENT 29 17 29 18 15 30 18 31
ROOT
ATOM      1  O   UNL     1     -36.453 162.582  -7.782  1.00  0.00    -0.457 OA
ENDROOT
BRANCH   1   2
ATOM      2  C   UNL     1     -37.133 162.535  -8.983  1.00  0.00    +0.138 A 
ATOM      3  C   UNL     1     -37.077 159.045 -11.373  1.00  0.00    +0.133 A 
ATOM      4  C   UNL     1     -37.807 160.191 -11.726  1.00  0.00    +0.076 A 
ATOM      5  C   UNL     1     -36.338 159.053 -10.177  1.00  0.00    +0.082 A 
ATOM      6  C   UNL     1     -37.830 161.337 -10.940  1.00  0.00    +0.078 A 
ATOM      7  C   UNL     1     -36.354 160.207  -9.376  1.00  0.00    +0.032 A 
ATOM      8  N   UNL     1     -38.557 162.389 -11.354  1.00  0.00    -0.256 NA
ATOM      9  C   UNL     1     -37.092 161.351  -9.745  1.00  0.00    +0.044 A 
ATOM     10  C   UNL     1     -38.589 163.496 -10.579  1.00  0.00    +0.115 A 
ATOM     11  C   UNL     1     -37.905 163.618  -9.390  1.00  0.00    +0.068 A 
BRANCH   3  12
ATOM     12  O   UNL     1     -37.045 157.908 -12.143  1.00  0.00    -0.496 OA
ATOM     13  C   UNL     1     -38.134 156.997 -12.040  1.00  0.00    +0.278 C 
ENDBRANCH   3  12
BRANCH   5  14
ATOM     14  C   UNL     1     -35.510 157.912  -9.668  1.00  0.00    +0.252 C 
ATOM     15  N   UNL     1     -34.338 157.625 -10.301  1.00  0.00    -0.365 N 
ATOM     16  O   UNL     1     -35.865 157.242  -8.705  1.00  0.00    -0.269 OA
ATOM     17  H   UNL     1     -34.002 158.186 -11.075  1.00  0.00    +0.159 HD
ATOM     18  H   UNL     1     -33.768 156.873  -9.942  1.00  0.00    +0.159 HD
ENDBRANCH   5  14
ENDBRANCH   1   2
BRANCH   1  19
ATOM     19  C   UNL     1     -37.216 162.521  -6.637  1.00  0.00    +0.129 A 
ATOM     20  C   UNL     1     -37.838 161.305  -6.359  1.00  0.00    +0.049 A 
ATOM     21  C   UNL     1     -37.328 163.584  -5.743  1.00  0.00    +0.069 A 
ATOM     22  C   UNL     1     -38.610 161.155  -5.202  1.00  0.00    +0.031 A 
ATOM     23  C   UNL     1     -38.097 163.429  -4.587  1.00  0.00    +0.068 A 
ATOM     24  C   UNL     1     -38.750 162.214  -4.301  1.00  0.00    +0.061 A 
ATOM     25 Cl   UNL     1     -38.225 164.782  -3.511  1.00  0.00    -0.082 Cl
BRANCH  24  26
ATOM     26  N   UNL     1     -39.520 162.128  -3.116  1.00  0.00    -0.307 N 
ATOM     27  C   UNL     1     -39.347 161.277  -2.046  1.00  0.00    +0.319 C 
ATOM     28  O   UNL     1     -38.444 160.462  -1.905  1.00  0.00    -0.248 OA
ATOM     29  N   UNL     1     -40.340 161.467  -1.098  1.00  0.00    -0.335 N 
ATOM     30  H   UNL     1     -40.213 162.857  -3.003  1.00  0.00    +0.171 HD
ATOM     31  H   UNL     1     -41.201 161.882  -1.421  1.00  0.00    +0.165 HD
BRANCH  29  32
ATOM     32  C   UNL     1     -40.405 160.669   0.089  1.00  0.00    +0.084 C 
ATOM     33  C   UNL     1     -40.664 159.190   0.004  1.00  0.00    +0.027 C 
ATOM     34  C   UNL     1     -41.717 160.103   0.560  1.00  0.00    +0.027 C 
ENDBRANCH  29  32
ENDBRANCH  24  26
ENDBRANCH   1  19
TORSDOF 6
ENDMDL
MODEL 5
REMARK VINA RESULT:    -8.740      5.659     13.408
REMARK INTER + INTRA:         -12.294
REMARK INTER:                 -11.033
REMARK INTRA:                  -1.260
REMARK UNBOUND:                -0.488
REMARK SMILES COc1cc2nccc(Oc3ccc(NC(=O)NC4CC4)c(Cl)c3)c2cc1C(N)=O
REMARK SMILES IDX 10 1 9 2 3 3 4 4 27 5 5 6 26 7 6 8 25 9 7 10 8 11 2 12 1 13
REMARK SMILES IDX 28 14 29 15 30 16 11 19 12 20 24 21 13 22 22 23 14 24 23 25
REMARK SMILES IDX 15 26 16 27 17 28 18 29 19 32 20 33 21 34
REMARK H PARENT 29 17 29 18 15 30 18 31
ROOT
ATOM      1  O   UNL     1     -37.131 153.890   6.886  1.00  0.00    -0.457 OA
ENDROOT
BRANCH   1   2
ATOM      2  C   UNL     1     -36.279 152.846   6.587  1.00  0.00    +0.138 A 
ATOM      3  C   UNL     1     -37.794 149.023   5.596  1.00  0.00    +0.133 A 
ATOM      4  C   UNL     1     -36.421 149.313   5.602  1.00  0.00    +0.076 A 
ATOM      5  C   UNL     1     -38.704 150.042   5.928  1.00  0.00    +0.082 A 
ATOM      6  C   UNL     1     -35.921 150.570   5.924  1.00  0.00    +0.078 A 
ATOM      7  C   UNL     1     -38.209 151.315   6.256  1.00  0.00    +0.032 A 
ATOM      8  N   UNL     1     -34.590 150.760   5.903  1.00  0.00    -0.256 NA
ATOM      9  C   UNL     1     -36.826 151.590   6.257  1.00  0.00    +0.044 A 
ATOM     10  C   UNL     1     -34.110 151.987   6.201  1.00  0.00    +0.115 A 
ATOM     11  C   UNL     1     -34.905 153.058   6.542  1.00  0.00    +0.068 A 
BRANCH   3  12
ATOM     12  O   UNL     1     -38.298 147.784   5.283  1.00  0.00    -0.496 OA
ATOM     13  C   UNL     1     -38.159 147.323   3.943  1.00  0.00    +0.278 C 
ENDBRANCH   3  12
BRANCH   5  14
ATOM     14  C   UNL     1     -40.194 149.886   5.968  1.00  0.00    +0.252 C 
ATOM     15  N   UNL     1     -40.880 149.877   4.791  1.00  0.00    -0.365 N 
ATOM     16  O   UNL     1     -40.797 149.769   7.029  1.00  0.00    -0.269 OA
ATOM     17  H   UNL     1     -40.404 149.933   3.899  1.00  0.00    +0.159 HD
ATOM     18  H   UNL     1     -41.881 149.746   4.818  1.00  0.00    +0.159 HD
ENDBRANCH   5  14
ENDBRANCH   1   2
BRANCH   1  19
ATOM     19  C   UNL     1     -37.230 154.895   5.950  1.00  0.00    +0.129 A 
ATOM     20  C   UNL     1     -37.686 154.533   4.683  1.00  0.00    +0.049 A 
ATOM     21  C   UNL     1     -36.958 156.231   6.240  1.00  0.00    +0.069 A 
ATOM     22  C   UNL     1     -37.837 155.501   3.684  1.00  0.00    +0.031 A 
ATOM     23  C   UNL     1     -37.114 157.195   5.240  1.00  0.00    +0.068 A 
ATOM     24  C   UNL     1     -37.554 156.843   3.948  1.00  0.00    +0.061 A 
ATOM     25 Cl   UNL     1     -36.749 158.842   5.637  1.00  0.00    -0.082 Cl
BRANCH  24  26
ATOM     26  N   UNL     1     -37.682 157.868   2.980  1.00  0.00    -0.307 N 
ATOM     27  C   UNL     1     -38.837 158.425   2.475  1.00  0.00    +0.319 C 
ATOM     28  O   UNL     1     -39.982 158.161   2.821  1.00  0.00    -0.248 OA
ATOM     29  N   UNL     1     -38.546 159.370   1.504  1.00  0.00    -0.335 N 
ATOM     30  H   UNL     1     -36.814 158.314   2.713  1.00  0.00    +0.171 HD
ATOM     31  H   UNL     1     -37.651 159.287   1.046  1.00  0.00    +0.165 HD
BRANCH  29  32
ATOM     32  C   UNL     1     -39.582 160.059   0.795  1.00  0.00    +0.084 C 
ATOM     33  C   UNL     1     -40.122 159.509  -0.496  1.00  0.00    +0.027 C 
ATOM     34  C   UNL     1     -39.287 160.755  -0.505  1.00  0.00    +0.027 C 
ENDBRANCH  29  32
ENDBRANCH  24  26
ENDBRANCH   1  19
TORSDOF 6
ENDMDL
MODEL 6
REMARK VINA RESULT:    -8.714      3.504     11.267
REMARK INTER + INTRA:         -12.259
REMARK INTER:                 -11.628
REMARK INTRA:                  -0.630
REMARK UNBOUND:                -0.488
REMARK SMILES COc1cc2nccc(Oc3ccc(NC(=O)NC4CC4)c(Cl)c3)c2cc1C(N)=O
REMARK SMILES IDX 10 1 9 2 3 3 4 4 27 5 5 6 26 7 6 8 25 9 7 10 8 11 2 12 1 13
REMARK SMILES IDX 28 14 29 15 30 16 11 19 12 20 24 21 13 22 22 23 14 24 23 25
REMARK SMILES IDX 15 26 16 27 17 28 18 29 19 32 20 33 21 34
REMARK H PARENT 29 17 29 18 15 30 18 31
ROOT
ATOM      1  O   UNL     1     -38.722 157.274   3.422  1.00  0.00    -0.457 OA
ENDROOT
BRANCH   1   2
ATOM      2  C   UNL     1     -37.472 157.200   4.003  1.00  0.00    +0.138 A 
ATOM      3  C   UNL     1     -35.974 153.526   5.471  1.00  0.00    +0.133 A 
ATOM      4  C   UNL     1     -35.228 154.715   5.507  1.00  0.00    +0.076 A 
ATOM      5  C   UNL     1     -37.268 153.554   4.921  1.00  0.00    +0.082 A 
ATOM      6  C   UNL     1     -35.717 155.923   5.022  1.00  0.00    +0.078 A 
ATOM      7  C   UNL     1     -37.772 154.770   4.429  1.00  0.00    +0.032 A 
ATOM      8  N   UNL     1     -34.934 157.013   5.097  1.00  0.00    -0.256 NA
ATOM      9  C   UNL     1     -37.009 155.956   4.474  1.00  0.00    +0.044 A 
ATOM     10  C   UNL     1     -35.407 158.181   4.610  1.00  0.00    +0.115 A 
ATOM     11  C   UNL     1     -36.657 158.327   4.052  1.00  0.00    +0.068 A 
BRANCH   3  12
ATOM     12  O   UNL     1     -35.502 152.329   5.950  1.00  0.00    -0.496 OA
ATOM     13  C   UNL     1     -35.404 152.163   7.361  1.00  0.00    +0.278 C 
ENDBRANCH   3  12
BRANCH   5  14
ATOM     14  C   UNL     1     -38.184 152.373   4.814  1.00  0.00    +0.252 C 
ATOM     15  N   UNL     1     -38.568 151.957   3.575  1.00  0.00    -0.365 N 
ATOM     16  O   UNL     1     -38.587 151.782   5.810  1.00  0.00    -0.269 OA
ATOM     17  H   UNL     1     -38.220 152.402   2.734  1.00  0.00    +0.159 HD
ATOM     18  H   UNL     1     -39.165 151.145   3.502  1.00  0.00    +0.159 HD
ENDBRANCH   5  14
ENDBRANCH   1   2
BRANCH   1  19
ATOM     19  C   UNL     1     -38.842 158.081   2.313  1.00  0.00    +0.129 A 
ATOM     20  C   UNL     1     -39.430 159.331   2.506  1.00  0.00    +0.049 A 
ATOM     21  C   UNL     1     -38.349 157.726   1.059  1.00  0.00    +0.069 A 
ATOM     22  C   UNL     1     -39.566 160.220   1.433  1.00  0.00    +0.031 A 
ATOM     23  C   UNL     1     -38.484 158.618  -0.008  1.00  0.00    +0.068 A 
ATOM     24  C   UNL     1     -39.095 159.876   0.163  1.00  0.00    +0.061 A 
ATOM     25 Cl   UNL     1     -37.875 158.130  -1.555  1.00  0.00    -0.082 Cl
BRANCH  24  26
ATOM     26  N   UNL     1     -39.206 160.728  -0.962  1.00  0.00    -0.307 N 
ATOM     27  C   UNL     1     -38.913 162.072  -1.046  1.00  0.00    +0.319 C 
ATOM     28  O   UNL     1     -38.445 162.771  -0.156  1.00  0.00    -0.248 OA
ATOM     29  N   UNL     1     -39.203 162.562  -2.310  1.00  0.00    -0.335 N 
ATOM     30  H   UNL     1     -39.424 160.260  -1.832  1.00  0.00    +0.171 HD
ATOM     31  H   UNL     1     -39.876 162.043  -2.853  1.00  0.00    +0.165 HD
BRANCH  29  32
ATOM     32  C   UNL     1     -39.027 163.945  -2.635  1.00  0.00    +0.084 C 
ATOM     33  C   UNL     1     -39.409 164.467  -3.993  1.00  0.00    +0.027 C 
ATOM     34  C   UNL     1     -37.962 164.373  -3.608  1.00  0.00    +0.027 C 
ENDBRANCH  29  32
ENDBRANCH  24  26
ENDBRANCH   1  19
TORSDOF 6
ENDMDL
MODEL 7
REMARK VINA RESULT:    -8.383      2.739      5.028
REMARK INTER + INTRA:         -11.812
REMARK INTER:                 -12.432
REMARK INTRA:                   0.620
REMARK UNBOUND:                -0.488
REMARK SMILES COc1cc2nccc(Oc3ccc(NC(=O)NC4CC4)c(Cl)c3)c2cc1C(N)=O
REMARK SMILES IDX 10 1 9 2 3 3 4 4 27 5 5 6 26 7 6 8 25 9 7 10 8 11 2 12 1 13
REMARK SMILES IDX 28 14 29 15 30 16 11 19 12 20 24 21 13 22 22 23 14 24 23 25
REMARK SMILES IDX 15 26 16 27 17 28 18 29 19 32 20 33 21 34
REMARK H PARENT 29 17 29 18 15 30 18 31
ROOT
ATOM      1  O   UNL     1     -38.256 163.736  -6.073  1.00  0.00    -0.457 OA
ENDROOT
BRANCH   1   2
ATOM      2  C   UNL     1     -37.632 162.973  -7.039  1.00  0.00    +0.138 A 
ATOM      3  C   UNL     1     -36.603 164.638 -10.790  1.00  0.00    +0.133 A 
ATOM      4  C   UNL     1     -36.299 163.312 -10.443  1.00  0.00    +0.076 A 
ATOM      5  C   UNL     1     -37.271 165.448  -9.854  1.00  0.00    +0.082 A 
ATOM      6  C   UNL     1     -36.634 162.764  -9.209  1.00  0.00    +0.078 A 
ATOM      7  C   UNL     1     -37.613 164.903  -8.605  1.00  0.00    +0.032 A 
ATOM      8  N   UNL     1     -36.304 161.485  -8.960  1.00  0.00    -0.256 NA
ATOM      9  C   UNL     1     -37.302 163.568  -8.273  1.00  0.00    +0.044 A 
ATOM     10  C   UNL     1     -36.616 160.961  -7.755  1.00  0.00    +0.115 A 
ATOM     11  C   UNL     1     -37.270 161.659  -6.764  1.00  0.00    +0.068 A 
BRANCH   3  12
ATOM     12  O   UNL     1     -36.281 165.188 -12.006  1.00  0.00    -0.496 OA
ATOM     13  C   UNL     1     -35.028 165.855 -12.129  1.00  0.00    +0.278 C 
ENDBRANCH   3  12
BRANCH   5  14
ATOM     14  C   UNL     1     -37.664 166.876 -10.078  1.00  0.00    +0.252 C 
ATOM     15  N   UNL     1     -37.246 167.815  -9.182  1.00  0.00    -0.365 N 
ATOM     16  O   UNL     1     -38.346 167.210 -11.040  1.00  0.00    -0.269 OA
ATOM     17  H   UNL     1     -36.650 167.573  -8.400  1.00  0.00    +0.159 HD
ATOM     18  H   UNL     1     -37.489 168.781  -9.347  1.00  0.00    +0.159 HD
ENDBRANCH   5  14
ENDBRANCH   1   2
BRANCH   1  19
ATOM     19  C   UNL     1     -38.609 163.092  -4.909  1.00  0.00    +0.129 A 
ATOM     20  C   UNL     1     -38.910 163.897  -3.810  1.00  0.00    +0.049 A 
ATOM     21  C   UNL     1     -38.734 161.707  -4.816  1.00  0.00    +0.069 A 
ATOM     22  C   UNL     1     -39.301 163.319  -2.597  1.00  0.00    +0.031 A 
ATOM     23  C   UNL     1     -39.128 161.134  -3.603  1.00  0.00    +0.068 A 
ATOM     24  C   UNL     1     -39.415 161.931  -2.477  1.00  0.00    +0.061 A 
ATOM     25 Cl   UNL     1     -39.254 159.407  -3.525  1.00  0.00    -0.082 Cl
BRANCH  24  26
ATOM     26  N   UNL     1     -39.801 161.285  -1.278  1.00  0.00    -0.307 N 
ATOM     27  C   UNL     1     -38.991 160.768  -0.290  1.00  0.00    +0.319 C 
ATOM     28  O   UNL     1     -37.769 160.824  -0.249  1.00  0.00    -0.248 OA
ATOM     29  N   UNL     1     -39.748 160.169   0.704  1.00  0.00    -0.335 N 
ATOM     30  H   UNL     1     -40.793 161.308  -1.081  1.00  0.00    +0.171 HD
ATOM     31  H   UNL     1     -40.676 159.866   0.447  1.00  0.00    +0.165 HD
BRANCH  29  32
ATOM     32  C   UNL     1     -39.135 159.517   1.822  1.00  0.00    +0.084 C 
ATOM     33  C   UNL     1     -38.534 158.146   1.674  1.00  0.00    +0.027 C 
ATOM     34  C   UNL     1     -39.793 158.329   2.471  1.00  0.00    +0.027 C 
ENDBRANCH  29  32
ENDBRANCH  24  26
ENDBRANCH   1  19
TORSDOF 6
ENDMDL
MODEL 8
REMARK VINA RESULT:    -8.308      9.458     12.919
REMARK INTER + INTRA:         -11.711
REMARK INTER:                 -10.396
REMARK INTRA:                  -1.315
REMARK UNBOUND:                -0.488
REMARK SMILES COc1cc2nccc(Oc3ccc(NC(=O)NC4CC4)c(Cl)c3)c2cc1C(N)=O
REMARK SMILES IDX 10 1 9 2 3 3 4 4 27 5 5 6 26 7 6 8 25 9 7 10 8 11 2 12 1 13
REMARK SMILES IDX 28 14 29 15 30 16 11 19 12 20 24 21 13 22 22 23 14 24 23 25
REMARK SMILES IDX 15 26 16 27 17 28 18 29 19 32 20 33 21 34
REMARK H PARENT 29 17 29 18 15 30 18 31
ROOT
ATOM      1  O   UNL     1     -38.001 152.484   6.416  1.00  0.00    -0.457 OA
ENDROOT
BRANCH   1   2
ATOM      2  C   UNL     1     -36.624 152.422   6.330  1.00  0.00    +0.138 A 
ATOM      3  C   UNL     1     -34.395 155.682   4.814  1.00  0.00    +0.133 A 
ATOM      4  C   UNL     1     -33.789 154.508   5.289  1.00  0.00    +0.076 A 
ATOM      5  C   UNL     1     -35.797 155.783   4.847  1.00  0.00    +0.082 A 
ATOM      6  C   UNL     1     -34.520 153.437   5.791  1.00  0.00    +0.078 A 
ATOM      7  C   UNL     1     -36.544 154.705   5.351  1.00  0.00    +0.032 A 
ATOM      8  N   UNL     1     -33.857 152.351   6.225  1.00  0.00    -0.256 NA
ATOM      9  C   UNL     1     -35.920 153.532   5.823  1.00  0.00    +0.044 A 
ATOM     10  C   UNL     1     -34.570 151.318   6.726  1.00  0.00    +0.115 A 
ATOM     11  C   UNL     1     -35.945 151.305   6.806  1.00  0.00    +0.068 A 
BRANCH   3  12
ATOM     12  O   UNL     1     -33.683 156.744   4.313  1.00  0.00    -0.496 OA
ATOM     13  C   UNL     1     -33.015 157.598   5.237  1.00  0.00    +0.278 C 
ENDBRANCH   3  12
BRANCH   5  14
ATOM     14  C   UNL     1     -36.586 156.966   4.375  1.00  0.00    +0.252 C 
ATOM     15  N   UNL     1     -36.674 158.056   5.188  1.00  0.00    -0.365 N 
ATOM     16  O   UNL     1     -37.147 156.969   3.285  1.00  0.00    -0.269 OA
ATOM     17  H   UNL     1     -36.190 158.095   6.076  1.00  0.00    +0.159 HD
ATOM     18  H   UNL     1     -37.185 158.863   4.859  1.00  0.00    +0.159 HD
ENDBRANCH   5  14
ENDBRANCH   1   2
BRANCH   1  19
ATOM     19  C   UNL     1     -38.708 151.551   5.693  1.00  0.00    +0.129 A 
ATOM     20  C   UNL     1     -38.637 151.645   4.303  1.00  0.00    +0.049 A 
ATOM     21  C   UNL     1     -39.418 150.509   6.287  1.00  0.00    +0.069 A 
ATOM     22  C   UNL     1     -39.308 150.719   3.497  1.00  0.00    +0.031 A 
ATOM     23  C   UNL     1     -40.084 149.584   5.478  1.00  0.00    +0.068 A 
ATOM     24  C   UNL     1     -40.040 149.677   4.073  1.00  0.00    +0.061 A 
ATOM     25 Cl   UNL     1     -40.970 148.315   6.258  1.00  0.00    -0.082 Cl
BRANCH  24  26
ATOM     26  N   UNL     1     -40.744 148.712   3.314  1.00  0.00    -0.307 N 
ATOM     27  C   UNL     1     -40.269 147.533   2.781  1.00  0.00    +0.319 C 
ATOM     28  O   UNL     1     -39.141 147.077   2.918  1.00  0.00    -0.248 OA
ATOM     29  N   UNL     1     -41.257 146.884   2.058  1.00  0.00    -0.335 N 
ATOM     30  H   UNL     1     -41.743 148.862   3.253  1.00  0.00    +0.171 HD
ATOM     31  H   UNL     1     -42.014 147.455   1.712  1.00  0.00    +0.165 HD
BRANCH  29  32
ATOM     32  C   UNL     1     -40.996 145.657   1.368  1.00  0.00    +0.084 C 
ATOM     33  C   UNL     1     -40.903 145.627  -0.133  1.00  0.00    +0.027 C 
ATOM     34  C   UNL     1     -42.074 144.991   0.557  1.00  0.00    +0.027 C 
ENDBRANCH  29  32
ENDBRANCH  24  26
ENDBRANCH   1  19
TORSDOF 6
ENDMDL
MODEL 9
REMARK VINA RESULT:    -8.102     11.211     13.956
REMARK INTER + INTRA:         -11.432
REMARK INTER:                 -10.201
REMARK INTRA:                  -1.231
REMARK UNBOUND:                -0.488
REMARK SMILES COc1cc2nccc(Oc3ccc(NC(=O)NC4CC4)c(Cl)c3)c2cc1C(N)=O
REMARK SMILES IDX 10 1 9 2 3 3 4 4 27 5 5 6 26 7 6 8 25 9 7 10 8 11 2 12 1 13
REMARK SMILES IDX 28 14 29 15 30 16 11 19 12 20 24 21 13 22 22 23 14 24 23 25
REMARK SMILES IDX 15 26 16 27 17 28 18 29 19 32 20 33 21 34
REMARK H PARENT 29 17 29 18 15 30 18 31
ROOT
ATOM      1  O   UNL     1     -35.950 152.260   5.147  1.00  0.00    -0.457 OA
ENDROOT
BRANCH   1   2
ATOM      2  C   UNL     1     -36.140 151.116   5.897  1.00  0.00    +0.138 A 
ATOM      3  C   UNL     1     -39.539 148.670   5.299  1.00  0.00    +0.133 A 
ATOM      4  C   UNL     1     -38.534 148.353   6.227  1.00  0.00    +0.076 A 
ATOM      5  C   UNL     1     -39.411 149.842   4.534  1.00  0.00    +0.082 A 
ATOM      6  C   UNL     1     -37.414 149.154   6.422  1.00  0.00    +0.078 A 
ATOM      7  C   UNL     1     -38.284 150.659   4.725  1.00  0.00    +0.032 A 
ATOM      8  N   UNL     1     -36.500 148.775   7.332  1.00  0.00    -0.256 NA
ATOM      9  C   UNL     1     -37.283 150.327   5.662  1.00  0.00    +0.044 A 
ATOM     10  C   UNL     1     -35.406 149.548   7.507  1.00  0.00    +0.115 A 
ATOM     11  C   UNL     1     -35.176 150.717   6.817  1.00  0.00    +0.068 A 
BRANCH   3  12
ATOM     12  O   UNL     1     -40.651 147.888   5.101  1.00  0.00    -0.496 OA
ATOM     13  C   UNL     1     -41.293 147.334   6.245  1.00  0.00    +0.278 C 
ENDBRANCH   3  12
BRANCH   5  14
ATOM     14  C   UNL     1     -40.398 150.314   3.510  1.00  0.00    +0.252 C 
ATOM     15  N   UNL     1     -41.726 150.263   3.813  1.00  0.00    -0.365 N 
ATOM     16  O   UNL     1     -40.035 150.739   2.418  1.00  0.00    -0.269 OA
ATOM     17  H   UNL     1     -42.051 149.953   4.720  1.00  0.00    +0.159 HD
ATOM     18  H   UNL     1     -42.389 150.605   3.132  1.00  0.00    +0.159 HD
ENDBRANCH   5  14
ENDBRANCH   1   2
BRANCH   1  19
ATOM     19  C   UNL     1     -36.087 153.461   5.805  1.00  0.00    +0.129 A 
ATOM     20  C   UNL     1     -37.338 153.736   6.358  1.00  0.00    +0.049 A 
ATOM     21  C   UNL     1     -35.031 154.352   5.986  1.00  0.00    +0.069 A 
ATOM     22  C   UNL     1     -37.551 154.925   7.063  1.00  0.00    +0.031 A 
ATOM     23  C   UNL     1     -35.248 155.537   6.694  1.00  0.00    +0.068 A 
ATOM     24  C   UNL     1     -36.510 155.841   7.242  1.00  0.00    +0.061 A 
ATOM     25 Cl   UNL     1     -33.913 156.626   6.881  1.00  0.00    -0.082 Cl
BRANCH  24  26
ATOM     26  N   UNL     1     -36.663 157.062   7.941  1.00  0.00    -0.307 N 
ATOM     27  C   UNL     1     -36.783 158.333   7.420  1.00  0.00    +0.319 C 
ATOM     28  O   UNL     1     -36.832 158.631   6.234  1.00  0.00    -0.248 OA
ATOM     29  N   UNL     1     -36.863 159.275   8.434  1.00  0.00    -0.335 N 
ATOM     30  H   UNL     1     -36.809 156.969   8.937  1.00  0.00    +0.171 HD
ATOM     31  H   UNL     1     -36.483 159.010   9.330  1.00  0.00    +0.165 HD
BRANCH  29  32
ATOM     32  C   UNL     1     -36.948 160.676   8.149  1.00  0.00    +0.084 C 
ATOM     33  C   UNL     1     -36.408 161.689   9.120  1.00  0.00    +0.027 C 
ATOM     34  C   UNL     1     -37.890 161.559   8.923  1.00  0.00    +0.027 C 
ENDBRANCH  29  32
ENDBRANCH  24  26
ENDBRANCH   1  19
TORSDOF 6
ENDMDL
MODEL 10
REMARK VINA RESULT:    -7.893     13.774     16.966
REMARK INTER + INTRA:         -11.149
REMARK INTER:                  -9.874
REMARK INTRA:                  -1.275
REMARK UNBOUND:                -0.488
REMARK SMILES COc1cc2nccc(Oc3ccc(NC(=O)NC4CC4)c(Cl)c3)c2cc1C(N)=O
REMARK SMILES IDX 10 1 9 2 3 3 4 4 27 5 5 6 26 7 6 8 25 9 7 10 8 11 2 12 1 13
REMARK SMILES IDX 28 14 29 15 30 16 11 19 12 20 24 21 13 22 22 23 14 24 23 25
REMARK SMILES IDX 15 26 16 27 17 28 18 29 19 32 20 33 21 34
REMARK H PARENT 29 17 29 18 15 30 18 31
ROOT
ATOM      1  O   UNL     1     -34.524 147.039   1.082  1.00  0.00    -0.457 OA
ENDROOT
BRANCH   1   2
ATOM      2  C   UNL     1     -34.690 146.045   2.026  1.00  0.00    +0.138 A 
ATOM      3  C   UNL     1     -35.349 147.003   6.093  1.00  0.00    +0.133 A 
ATOM      4  C   UNL     1     -35.325 145.681   5.622  1.00  0.00    +0.076 A 
ATOM      5  C   UNL     1     -35.150 148.052   5.178  1.00  0.00    +0.082 A 
ATOM      6  C   UNL     1     -35.113 145.364   4.285  1.00  0.00    +0.078 A 
ATOM      7  C   UNL     1     -34.933 147.742   3.825  1.00  0.00    +0.032 A 
ATOM      8  N   UNL     1     -35.107 144.069   3.922  1.00  0.00    -0.256 NA
ATOM      9  C   UNL     1     -34.912 146.408   3.368  1.00  0.00    +0.044 A 
ATOM     10  C   UNL     1     -34.915 143.767   2.619  1.00  0.00    +0.115 A 
ATOM     11  C   UNL     1     -34.709 144.709   1.637  1.00  0.00    +0.068 A 
BRANCH   3  12
ATOM     12  O   UNL     1     -35.555 147.327   7.411  1.00  0.00    -0.496 OA
ATOM     13  C   UNL     1     -34.524 147.020   8.346  1.00  0.00    +0.278 C 
ENDBRANCH   3  12
BRANCH   5  14
ATOM     14  C   UNL     1     -35.145 149.509   5.527  1.00  0.00    +0.252 C 
ATOM     15  N   UNL     1     -34.150 149.983   6.329  1.00  0.00    -0.365 N 
ATOM     16  O   UNL     1     -36.009 150.272   5.108  1.00  0.00    -0.269 OA
ATOM     17  H   UNL     1     -33.403 149.384   6.657  1.00  0.00    +0.159 HD
ATOM     18  H   UNL     1     -34.132 150.970   6.543  1.00  0.00    +0.159 HD
ENDBRANCH   5  14
ENDBRANCH   1   2
BRANCH   1  19
ATOM     19  C   UNL     1     -35.561 147.228   0.196  1.00  0.00    +0.129 A 
ATOM     20  C   UNL     1     -35.260 147.107  -1.161  1.00  0.00    +0.049 A 
ATOM     21  C   UNL     1     -36.873 147.465   0.602  1.00  0.00    +0.069 A 
ATOM     22  C   UNL     1     -36.264 147.261  -2.123  1.00  0.00    +0.031 A 
ATOM     23  C   UNL     1     -37.873 147.614  -0.363  1.00  0.00    +0.068 A 
ATOM     24  C   UNL     1     -37.583 147.516  -1.738  1.00  0.00    +0.061 A 
ATOM     25 Cl   UNL     1     -39.488 147.926   0.185  1.00  0.00    -0.082 Cl
BRANCH  24  26
ATOM     26  N   UNL     1     -38.642 147.687  -2.661  1.00  0.00    -0.307 N 
ATOM     27  C   UNL     1     -39.649 146.800  -2.976  1.00  0.00    +0.319 C 
ATOM     28  O   UNL     1     -39.840 145.706  -2.463  1.00  0.00    -0.248 OA
ATOM     29  N   UNL     1     -40.468 147.317  -3.968  1.00  0.00    -0.335 N 
ATOM     30  H   UNL     1     -38.722 148.616  -3.052  1.00  0.00    +0.171 HD
ATOM     31  H   UNL     1     -40.069 148.030  -4.560  1.00  0.00    +0.165 HD
BRANCH  29  32
ATOM     32  C   UNL     1     -41.564 146.565  -4.502  1.00  0.00    +0.084 C 
ATOM     33  C   UNL     1     -41.778 146.473  -5.987  1.00  0.00    +0.027 C 
ATOM     34  C   UNL     1     -42.732 147.264  -5.141  1.00  0.00    +0.027 C 
ENDBRANCH  29  32
ENDBRANCH  24  26
ENDBRANCH   1  19
TORSDOF 6
ENDMDL
