MODEL 1
REMARK VINA RESULT:    -9.374      0.000      0.000
REMARK INTER + INTRA:         -11.075
REMARK INTER:                 -10.470
REMARK INTRA:                  -0.605
REMARK UNBOUND:                -0.605
REMARK SMILES CN(C)c1ccc(/C=C2\C(=O)Nc3ccccc32)c2ccccc12
REMARK SMILES IDX 4 1 5 2 6 3 7 4 19 5 20 6 21 7 22 8 23 9 24 10 2 11 1 12
REMARK SMILES IDX 3 13 8 14 9 15 10 16 18 17 11 18 12 19 17 20 13 21 16 22
REMARK SMILES IDX 14 23 15 24
REMARK H PARENT 12 25
ROOT
ATOM      1  C   UNL     1     -38.067 162.059  -6.481  1.00  0.00    +0.044 A 
ATOM      2  C   UNL     1     -38.573 160.777  -6.223  1.00  0.00    +0.027 A 
ATOM      3  C   UNL     1     -39.224 160.492  -5.025  1.00  0.00    +0.011 A 
ATOM      4  C   UNL     1     -39.373 161.479  -4.046  1.00  0.00    -0.017 A 
ATOM      5  C   UNL     1     -38.871 162.789  -4.266  1.00  0.00    -0.009 A 
ATOM      6  C   UNL     1     -38.993 163.827  -3.309  1.00  0.00    +0.009 A 
ATOM      7  C   UNL     1     -38.503 165.111  -3.545  1.00  0.00    +0.001 A 
ATOM      8  C   UNL     1     -37.878 165.396  -4.748  1.00  0.00    +0.001 A 
ATOM      9  C   UNL     1     -37.740 164.392  -5.707  1.00  0.00    +0.011 A 
ATOM     10  C   UNL     1     -38.217 163.078  -5.496  1.00  0.00    +0.006 A 
ENDROOT
BRANCH   1  11
ATOM     11  N   UNL     1     -37.367 162.341  -7.688  1.00  0.00    -0.377 N 
ATOM     12  C   UNL     1     -36.350 161.314  -7.939  1.00  0.00    +0.143 C 
ATOM     13  C   UNL     1     -38.225 162.633  -8.836  1.00  0.00    +0.143 C 
ENDBRANCH   1  11
BRANCH   4  14
ATOM     14  C   UNL     1     -40.100 161.121  -2.817  1.00  0.00    +0.023 C 
ATOM     15  C   UNL     1     -39.610 160.404  -1.795  1.00  0.00    +0.050 C 
ATOM     16  C   UNL     1     -38.230 159.804  -1.662  1.00  0.00    +0.256 C 
ATOM     17  C   UNL     1     -40.341 160.072  -0.566  1.00  0.00    +0.011 A 
ATOM     18  O   UNL     1     -37.306 159.829  -2.449  1.00  0.00    -0.269 OA
ATOM     19  N   UNL     1     -38.231 159.188  -0.418  1.00  0.00    -0.321 N 
ATOM     20  C   UNL     1     -41.623 160.339  -0.119  1.00  0.00    +0.011 A 
ATOM     21  C   UNL     1     -39.454 159.338   0.227  1.00  0.00    +0.049 A 
ATOM     22  C   UNL     1     -41.996 159.856   1.139  1.00  0.00    +0.001 A 
ATOM     23  C   UNL     1     -39.799 158.852   1.471  1.00  0.00    +0.027 A 
ATOM     24  C   UNL     1     -41.092 159.119   1.928  1.00  0.00    +0.002 A 
ATOM     25  H   UNL     1     -37.426 158.700  -0.057  1.00  0.00    +0.170 HD
ENDBRANCH   4  14
TORSDOF 2
ENDMDL
MODEL 2
REMARK VINA RESULT:    -8.868      2.024      7.492
REMARK INTER + INTRA:         -10.509
REMARK INTER:                 -11.064
REMARK INTRA:                   0.555
REMARK UNBOUND:                -0.605
REMARK SMILES CN(C)c1ccc(/C=C2\C(=O)Nc3ccccc32)c2ccccc12
REMARK SMILES IDX 4 1 5 2 6 3 7 4 19 5 20 6 21 7 22 8 23 9 24 10 2 11 1 12
REMARK SMILES IDX 3 13 8 14 9 15 10 16 18 17 11 18 12 19 17 20 13 21 16 22
REMARK SMILES IDX 14 23 15 24
REMARK H PARENT 12 25
ROOT
ATOM      1  C   UNL     1     -39.248 159.026   1.424  1.00  0.00    +0.044 A 
ATOM      2  C   UNL     1     -38.074 158.974   0.659  1.00  0.00    +0.027 A 
ATOM      3  C   UNL     1     -38.019 159.548  -0.608  1.00  0.00    +0.011 A 
ATOM      4  C   UNL     1     -39.143 160.179  -1.152  1.00  0.00    -0.017 A 
ATOM      5  C   UNL     1     -40.352 160.251  -0.411  1.00  0.00    -0.009 A 
ATOM      6  C   UNL     1     -41.521 160.877  -0.912  1.00  0.00    +0.009 A 
ATOM      7  C   UNL     1     -42.698 160.948  -0.167  1.00  0.00    +0.001 A 
ATOM      8  C   UNL     1     -42.741 160.396   1.103  1.00  0.00    +0.001 A 
ATOM      9  C   UNL     1     -41.606 159.770   1.619  1.00  0.00    +0.011 A 
ATOM     10  C   UNL     1     -40.400 159.673   0.888  1.00  0.00    +0.006 A 
ENDROOT
BRANCH   1  11
ATOM     11  N   UNL     1     -39.318 158.406   2.703  1.00  0.00    -0.377 N 
ATOM     12  C   UNL     1     -40.586 157.683   2.848  1.00  0.00    +0.143 C 
ATOM     13  C   UNL     1     -38.135 157.629   3.070  1.00  0.00    +0.143 C 
ENDBRANCH   1  11
BRANCH   4  14
ATOM     14  C   UNL     1     -39.007 160.795  -2.482  1.00  0.00    +0.023 C 
ATOM     15  C   UNL     1     -38.864 162.105  -2.729  1.00  0.00    +0.050 C 
ATOM     16  C   UNL     1     -38.809 163.236  -1.730  1.00  0.00    +0.256 C 
ATOM     17  C   UNL     1     -38.709 162.704  -4.061  1.00  0.00    +0.011 A 
ATOM     18  O   UNL     1     -38.906 163.193  -0.520  1.00  0.00    -0.269 OA
ATOM     19  N   UNL     1     -38.629 164.379  -2.498  1.00  0.00    -0.321 N 
ATOM     20  C   UNL     1     -38.682 162.181  -5.341  1.00  0.00    +0.011 A 
ATOM     21  C   UNL     1     -38.569 164.079  -3.854  1.00  0.00    +0.049 A 
ATOM     22  C   UNL     1     -38.512 163.068  -6.410  1.00  0.00    +0.001 A 
ATOM     23  C   UNL     1     -38.400 164.972  -4.892  1.00  0.00    +0.027 A 
ATOM     24  C   UNL     1     -38.372 164.450  -6.189  1.00  0.00    +0.002 A 
ATOM     25  H   UNL     1     -38.554 165.297  -2.089  1.00  0.00    +0.170 HD
ENDBRANCH   4  14
TORSDOF 2
ENDMDL
MODEL 3
REMARK VINA RESULT:    -7.876     14.560     16.165
REMARK INTER + INTRA:          -9.402
REMARK INTER:                  -8.612
REMARK INTRA:                  -0.790
REMARK UNBOUND:                -0.605
REMARK SMILES CN(C)c1ccc(/C=C2\C(=O)Nc3ccccc32)c2ccccc12
REMARK SMILES IDX 4 1 5 2 6 3 7 4 19 5 20 6 21 7 22 8 23 9 24 10 2 11 1 12
REMARK SMILES IDX 3 13 8 14 9 15 10 16 18 17 11 18 12 19 17 20 13 21 16 22
REMARK SMILES IDX 14 23 15 24
REMARK H PARENT 12 25
ROOT
ATOM      1  C   UNL     1     -35.424 147.472   0.987  1.00  0.00    +0.044 A 
ATOM      2  C   UNL     1     -36.691 148.039   1.190  1.00  0.00    +0.027 A 
ATOM      3  C   UNL     1     -37.662 147.997   0.194  1.00  0.00    +0.011 A 
ATOM      4  C   UNL     1     -37.389 147.399  -1.040  1.00  0.00    -0.017 A 
ATOM      5  C   UNL     1     -36.118 146.816  -1.288  1.00  0.00    -0.009 A 
ATOM      6  C   UNL     1     -35.786 146.198  -2.520  1.00  0.00    +0.009 A 
ATOM      7  C   UNL     1     -34.536 145.622  -2.744  1.00  0.00    +0.001 A 
ATOM      8  C   UNL     1     -33.580 145.645  -1.740  1.00  0.00    +0.001 A 
ATOM      9  C   UNL     1     -33.878 146.251  -0.520  1.00  0.00    +0.011 A 
ATOM     10  C   UNL     1     -35.132 146.851  -0.263  1.00  0.00    +0.006 A 
ENDROOT
BRANCH   1  11
ATOM     11  N   UNL     1     -34.417 147.548   1.990  1.00  0.00    -0.377 N 
ATOM     12  C   UNL     1     -33.934 148.927   2.122  1.00  0.00    +0.143 C 
ATOM     13  C   UNL     1     -34.768 146.908   3.256  1.00  0.00    +0.143 C 
ENDBRANCH   1  11
BRANCH   4  14
ATOM     14  C   UNL     1     -38.471 147.358  -2.037  1.00  0.00    +0.023 C 
ATOM     15  C   UNL     1     -39.405 146.402  -2.144  1.00  0.00    +0.050 C 
ATOM     16  C   UNL     1     -39.568 145.166  -1.291  1.00  0.00    +0.256 C 
ATOM     17  C   UNL     1     -40.491 146.385  -3.131  1.00  0.00    +0.011 A 
ATOM     18  O   UNL     1     -38.883 144.781  -0.364  1.00  0.00    -0.269 OA
ATOM     19  N   UNL     1     -40.690 144.529  -1.801  1.00  0.00    -0.321 N 
ATOM     20  C   UNL     1     -40.854 147.235  -4.161  1.00  0.00    +0.011 A 
ATOM     21  C   UNL     1     -41.235 145.230  -2.872  1.00  0.00    +0.049 A 
ATOM     22  C   UNL     1     -41.979 146.902  -4.924  1.00  0.00    +0.001 A 
ATOM     23  C   UNL     1     -42.347 144.882  -3.609  1.00  0.00    +0.027 A 
ATOM     24  C   UNL     1     -42.719 145.737  -4.651  1.00  0.00    +0.002 A 
ATOM     25  H   UNL     1     -41.041 143.665  -1.418  1.00  0.00    +0.170 HD
ENDBRANCH   4  14
TORSDOF 2
ENDMDL
MODEL 4
REMARK VINA RESULT:    -7.714     10.574     14.830
REMARK INTER + INTRA:          -9.221
REMARK INTER:                  -8.492
REMARK INTRA:                  -0.729
REMARK UNBOUND:                -0.605
REMARK SMILES CN(C)c1ccc(/C=C2\C(=O)Nc3ccccc32)c2ccccc12
REMARK SMILES IDX 4 1 5 2 6 3 7 4 19 5 20 6 21 7 22 8 23 9 24 10 2 11 1 12
REMARK SMILES IDX 3 13 8 14 9 15 10 16 18 17 11 18 12 19 17 20 13 21 16 22
REMARK SMILES IDX 14 23 15 24
REMARK H PARENT 12 25
ROOT
ATOM      1  C   UNL     1     -35.994 149.311   7.391  1.00  0.00    +0.044 A 
ATOM      2  C   UNL     1     -35.207 150.229   8.102  1.00  0.00    +0.027 A 
ATOM      3  C   UNL     1     -35.348 151.599   7.901  1.00  0.00    +0.011 A 
ATOM      4  C   UNL     1     -36.271 152.090   6.971  1.00  0.00    -0.017 A 
ATOM      5  C   UNL     1     -37.084 151.194   6.228  1.00  0.00    -0.009 A 
ATOM      6  C   UNL     1     -38.033 151.635   5.273  1.00  0.00    +0.009 A 
ATOM      7  C   UNL     1     -38.832 150.742   4.558  1.00  0.00    +0.001 A 
ATOM      8  C   UNL     1     -38.705 149.381   4.779  1.00  0.00    +0.001 A 
ATOM      9  C   UNL     1     -37.775 148.918   5.710  1.00  0.00    +0.011 A 
ATOM     10  C   UNL     1     -36.945 149.795   6.445  1.00  0.00    +0.006 A 
ENDROOT
BRANCH   1  11
ATOM     11  N   UNL     1     -35.825 147.909   7.567  1.00  0.00    -0.377 N 
ATOM     12  C   UNL     1     -34.496 147.495   7.102  1.00  0.00    +0.143 C 
ATOM     13  C   UNL     1     -36.180 147.414   8.896  1.00  0.00    +0.143 C 
ENDBRANCH   1  11
BRANCH   4  14
ATOM     14  C   UNL     1     -36.393 153.550   6.832  1.00  0.00    +0.023 C 
ATOM     15  C   UNL     1     -35.597 154.338   6.094  1.00  0.00    +0.050 C 
ATOM     16  C   UNL     1     -34.414 153.929   5.250  1.00  0.00    +0.256 C 
ATOM     17  C   UNL     1     -35.744 155.791   5.948  1.00  0.00    +0.011 A 
ATOM     18  O   UNL     1     -33.935 152.824   5.088  1.00  0.00    -0.269 OA
ATOM     19  N   UNL     1     -33.959 155.111   4.681  1.00  0.00    -0.321 N 
ATOM     20  C   UNL     1     -36.629 156.716   6.473  1.00  0.00    +0.011 A 
ATOM     21  C   UNL     1     -34.726 156.199   5.081  1.00  0.00    +0.049 A 
ATOM     22  C   UNL     1     -36.472 158.058   6.110  1.00  0.00    +0.001 A 
ATOM     23  C   UNL     1     -34.552 157.516   4.708  1.00  0.00    +0.027 A 
ATOM     24  C   UNL     1     -35.444 158.455   5.235  1.00  0.00    +0.002 A 
ATOM     25  H   UNL     1     -33.167 155.140   4.058  1.00  0.00    +0.170 HD
ENDBRANCH   4  14
TORSDOF 2
ENDMDL
MODEL 5
REMARK VINA RESULT:    -7.666     14.269     16.122
REMARK INTER + INTRA:          -9.166
REMARK INTER:                  -8.448
REMARK INTRA:                  -0.718
REMARK UNBOUND:                -0.605
REMARK SMILES CN(C)c1ccc(/C=C2\C(=O)Nc3ccccc32)c2ccccc12
REMARK SMILES IDX 4 1 5 2 6 3 7 4 19 5 20 6 21 7 22 8 23 9 24 10 2 11 1 12
REMARK SMILES IDX 3 13 8 14 9 15 10 16 18 17 11 18 12 19 17 20 13 21 16 22
REMARK SMILES IDX 14 23 15 24
REMARK H PARENT 12 25
ROOT
ATOM      1  C   UNL     1     -37.837 147.891   1.363  1.00  0.00    +0.044 A 
ATOM      2  C   UNL     1     -39.229 147.723   1.412  1.00  0.00    +0.027 A 
ATOM      3  C   UNL     1     -39.961 147.472   0.255  1.00  0.00    +0.011 A 
ATOM      4  C   UNL     1     -39.322 147.398  -0.987  1.00  0.00    -0.017 A 
ATOM      5  C   UNL     1     -37.916 147.566  -1.081  1.00  0.00    -0.009 A 
ATOM      6  C   UNL     1     -37.217 147.502  -2.313  1.00  0.00    +0.009 A 
ATOM      7  C   UNL     1     -35.833 147.659  -2.386  1.00  0.00    +0.001 A 
ATOM      8  C   UNL     1     -35.106 147.885  -1.229  1.00  0.00    +0.001 A 
ATOM      9  C   UNL     1     -35.768 147.957  -0.003  1.00  0.00    +0.011 A 
ATOM     10  C   UNL     1     -37.170 147.811   0.106  1.00  0.00    +0.006 A 
ENDROOT
BRANCH   1  11
ATOM     11  N   UNL     1     -37.092 148.185   2.540  1.00  0.00    -0.377 N 
ATOM     12  C   UNL     1     -37.795 149.187   3.349  1.00  0.00    +0.143 C 
ATOM     13  C   UNL     1     -36.645 147.012   3.288  1.00  0.00    +0.143 C 
ENDBRANCH   1  11
BRANCH   4  14
ATOM     14  C   UNL     1     -40.150 147.097  -2.167  1.00  0.00    +0.023 C 
ATOM     15  C   UNL     1     -40.462 145.872  -2.615  1.00  0.00    +0.050 C 
ATOM     16  C   UNL     1     -40.050 144.541  -2.035  1.00  0.00    +0.256 C 
ATOM     17  C   UNL     1     -41.306 145.588  -3.782  1.00  0.00    +0.011 A 
ATOM     18  O   UNL     1     -39.344 144.311  -1.073  1.00  0.00    -0.269 OA
ATOM     19  N   UNL     1     -40.652 143.596  -2.854  1.00  0.00    -0.321 N 
ATOM     20  C   UNL     1     -41.962 146.388  -4.700  1.00  0.00    +0.011 A 
ATOM     21  C   UNL     1     -41.385 144.195  -3.873  1.00  0.00    +0.049 A 
ATOM     22  C   UNL     1     -42.698 145.762  -5.712  1.00  0.00    +0.001 A 
ATOM     23  C   UNL     1     -42.105 143.555  -4.861  1.00  0.00    +0.027 A 
ATOM     24  C   UNL     1     -42.770 144.358  -5.792  1.00  0.00    +0.002 A 
ATOM     25  H   UNL     1     -40.550 142.605  -2.701  1.00  0.00    +0.170 HD
ENDBRANCH   4  14
TORSDOF 2
ENDMDL
MODEL 6
REMARK VINA RESULT:    -7.581      4.265      7.805
REMARK INTER + INTRA:          -9.072
REMARK INTER:                  -8.330
REMARK INTRA:                  -0.742
REMARK UNBOUND:                -0.605
REMARK SMILES CN(C)c1ccc(/C=C2\C(=O)Nc3ccccc32)c2ccccc12
REMARK SMILES IDX 4 1 5 2 6 3 7 4 19 5 20 6 21 7 22 8 23 9 24 10 2 11 1 12
REMARK SMILES IDX 3 13 8 14 9 15 10 16 18 17 11 18 12 19 17 20 13 21 16 22
REMARK SMILES IDX 14 23 15 24
REMARK H PARENT 12 25
ROOT
ATOM      1  C   UNL     1     -39.183 160.044   0.202  1.00  0.00    +0.044 A 
ATOM      2  C   UNL     1     -37.913 159.452   0.259  1.00  0.00    +0.027 A 
ATOM      3  C   UNL     1     -37.660 158.383   1.115  1.00  0.00    +0.011 A 
ATOM      4  C   UNL     1     -38.666 157.887   1.949  1.00  0.00    -0.017 A 
ATOM      5  C   UNL     1     -39.965 158.460   1.924  1.00  0.00    -0.009 A 
ATOM      6  C   UNL     1     -41.022 157.998   2.748  1.00  0.00    +0.009 A 
ATOM      7  C   UNL     1     -42.295 158.565   2.704  1.00  0.00    +0.001 A 
ATOM      8  C   UNL     1     -42.549 159.613   1.833  1.00  0.00    +0.001 A 
ATOM      9  C   UNL     1     -41.526 160.091   1.015  1.00  0.00    +0.011 A 
ATOM     10  C   UNL     1     -40.223 159.544   1.040  1.00  0.00    +0.006 A 
ENDROOT
BRANCH   1  11
ATOM     11  N   UNL     1     -39.435 161.161  -0.644  1.00  0.00    -0.377 N 
ATOM     12  C   UNL     1     -38.622 162.309  -0.224  1.00  0.00    +0.143 C 
ATOM     13  C   UNL     1     -39.372 160.869  -2.075  1.00  0.00    +0.143 C 
ENDBRANCH   1  11
BRANCH   4  14
ATOM     14  C   UNL     1     -38.341 156.734   2.805  1.00  0.00    +0.023 C 
ATOM     15  C   UNL     1     -37.735 156.790   4.000  1.00  0.00    +0.050 C 
ATOM     16  C   UNL     1     -37.251 158.015   4.737  1.00  0.00    +0.256 C 
ATOM     17  C   UNL     1     -37.434 155.632   4.851  1.00  0.00    +0.011 A 
ATOM     18  O   UNL     1     -37.290 159.180   4.394  1.00  0.00    -0.269 OA
ATOM     19  N   UNL     1     -36.724 157.529   5.925  1.00  0.00    -0.321 N 
ATOM     20  C   UNL     1     -37.636 154.270   4.713  1.00  0.00    +0.011 A 
ATOM     21  C   UNL     1     -36.826 156.144   6.001  1.00  0.00    +0.049 A 
ATOM     22  C   UNL     1     -37.214 153.433   5.751  1.00  0.00    +0.001 A 
ATOM     23  C   UNL     1     -36.402 155.338   7.038  1.00  0.00    +0.027 A 
ATOM     24  C   UNL     1     -36.603 153.962   6.904  1.00  0.00    +0.002 A 
ATOM     25  H   UNL     1     -36.324 158.134   6.626  1.00  0.00    +0.170 HD
ENDBRANCH   4  14
TORSDOF 2
ENDMDL
MODEL 7
REMARK VINA RESULT:    -7.574      2.488      4.515
REMARK INTER + INTRA:          -9.065
REMARK INTER:                 -10.610
REMARK INTRA:                   1.545
REMARK UNBOUND:                -0.605
REMARK SMILES CN(C)c1ccc(/C=C2\C(=O)Nc3ccccc32)c2ccccc12
REMARK SMILES IDX 4 1 5 2 6 3 7 4 19 5 20 6 21 7 22 8 23 9 24 10 2 11 1 12
REMARK SMILES IDX 3 13 8 14 9 15 10 16 18 17 11 18 12 19 17 20 13 21 16 22
REMARK SMILES IDX 14 23 15 24
REMARK H PARENT 12 25
ROOT
ATOM      1  C   UNL     1     -37.595 164.822  -8.718  1.00  0.00    +0.044 A 
ATOM      2  C   UNL     1     -38.196 165.342  -7.562  1.00  0.00    +0.027 A 
ATOM      3  C   UNL     1     -38.519 164.515  -6.489  1.00  0.00    +0.011 A 
ATOM      4  C   UNL     1     -38.263 163.142  -6.549  1.00  0.00    -0.017 A 
ATOM      5  C   UNL     1     -37.658 162.575  -7.701  1.00  0.00    -0.009 A 
ATOM      6  C   UNL     1     -37.377 161.191  -7.817  1.00  0.00    +0.009 A 
ATOM      7  C   UNL     1     -36.773 160.651  -8.953  1.00  0.00    +0.001 A 
ATOM      8  C   UNL     1     -36.432 161.482 -10.008  1.00  0.00    +0.001 A 
ATOM      9  C   UNL     1     -36.702 162.848  -9.924  1.00  0.00    +0.011 A 
ATOM     10  C   UNL     1     -37.320 163.425  -8.791  1.00  0.00    +0.006 A 
ENDROOT
BRANCH   1  11
ATOM     11  N   UNL     1     -37.299 165.659  -9.830  1.00  0.00    -0.377 N 
ATOM     12  C   UNL     1     -38.276 165.441 -10.903  1.00  0.00    +0.143 C 
ATOM     13  C   UNL     1     -37.076 167.064  -9.494  1.00  0.00    +0.143 C 
ENDBRANCH   1  11
BRANCH   4  14
ATOM     14  C   UNL     1     -38.598 162.330  -5.367  1.00  0.00    +0.023 C 
ATOM     15  C   UNL     1     -38.635 162.767  -4.100  1.00  0.00    +0.050 C 
ATOM     16  C   UNL     1     -38.350 164.160  -3.591  1.00  0.00    +0.256 C 
ATOM     17  C   UNL     1     -38.991 161.950  -2.933  1.00  0.00    +0.011 A 
ATOM     18  O   UNL     1     -38.012 165.147  -4.213  1.00  0.00    -0.269 OA
ATOM     19  N   UNL     1     -38.551 164.084  -2.220  1.00  0.00    -0.321 N 
ATOM     20  C   UNL     1     -39.343 160.622  -2.773  1.00  0.00    +0.011 A 
ATOM     21  C   UNL     1     -38.924 162.803  -1.827  1.00  0.00    +0.049 A 
ATOM     22  C   UNL     1     -39.626 160.167  -1.480  1.00  0.00    +0.001 A 
ATOM     23  C   UNL     1     -39.199 162.377  -0.544  1.00  0.00    +0.027 A 
ATOM     24  C   UNL     1     -39.555 161.036  -0.375  1.00  0.00    +0.002 A 
ATOM     25  H   UNL     1     -38.432 164.879  -1.612  1.00  0.00    +0.170 HD
ENDBRANCH   4  14
TORSDOF 2
ENDMDL
MODEL 8
REMARK VINA RESULT:    -7.545     10.722     13.400
REMARK INTER + INTRA:          -9.031
REMARK INTER:                  -8.422
REMARK INTRA:                  -0.610
REMARK UNBOUND:                -0.605
REMARK SMILES CN(C)c1ccc(/C=C2\C(=O)Nc3ccccc32)c2ccccc12
REMARK SMILES IDX 4 1 5 2 6 3 7 4 19 5 20 6 21 7 22 8 23 9 24 10 2 11 1 12
REMARK SMILES IDX 3 13 8 14 9 15 10 16 18 17 11 18 12 19 17 20 13 21 16 22
REMARK SMILES IDX 14 23 15 24
REMARK H PARENT 12 25
ROOT
ATOM      1  C   UNL     1     -36.025 155.958   6.472  1.00  0.00    +0.044 A 
ATOM      2  C   UNL     1     -37.424 155.892   6.560  1.00  0.00    +0.027 A 
ATOM      3  C   UNL     1     -38.082 154.667   6.594  1.00  0.00    +0.011 A 
ATOM      4  C   UNL     1     -37.361 153.470   6.525  1.00  0.00    -0.017 A 
ATOM      5  C   UNL     1     -35.945 153.493   6.432  1.00  0.00    -0.009 A 
ATOM      6  C   UNL     1     -35.163 152.312   6.358  1.00  0.00    +0.009 A 
ATOM      7  C   UNL     1     -33.771 152.351   6.277  1.00  0.00    +0.001 A 
ATOM      8  C   UNL     1     -33.119 153.573   6.268  1.00  0.00    +0.001 A 
ATOM      9  C   UNL     1     -33.863 154.751   6.334  1.00  0.00    +0.011 A 
ATOM     10  C   UNL     1     -35.274 154.747   6.409  1.00  0.00    +0.006 A 
ENDROOT
BRANCH   1  11
ATOM     11  N   UNL     1     -35.353 157.210   6.399  1.00  0.00    -0.377 N 
ATOM     12  C   UNL     1     -35.156 157.600   4.998  1.00  0.00    +0.143 C 
ATOM     13  C   UNL     1     -35.923 158.259   7.243  1.00  0.00    +0.143 C 
ENDBRANCH   1  11
BRANCH   4  14
ATOM     14  C   UNL     1     -38.116 152.209   6.599  1.00  0.00    +0.023 C 
ATOM     15  C   UNL     1     -38.691 151.576   5.565  1.00  0.00    +0.050 C 
ATOM     16  C   UNL     1     -38.703 151.993   4.114  1.00  0.00    +0.256 C 
ATOM     17  C   UNL     1     -39.424 150.307   5.652  1.00  0.00    +0.011 A 
ATOM     18  O   UNL     1     -38.222 152.983   3.599  1.00  0.00    -0.269 OA
ATOM     19  N   UNL     1     -39.406 150.989   3.463  1.00  0.00    -0.321 N 
ATOM     20  C   UNL     1     -39.742 149.461   6.699  1.00  0.00    +0.011 A 
ATOM     21  C   UNL     1     -39.830 150.004   4.349  1.00  0.00    +0.049 A 
ATOM     22  C   UNL     1     -40.474 148.304   6.411  1.00  0.00    +0.001 A 
ATOM     23  C   UNL     1     -40.551 148.869   4.041  1.00  0.00    +0.027 A 
ATOM     24  C   UNL     1     -40.875 148.010   5.094  1.00  0.00    +0.002 A 
ATOM     25  H   UNL     1     -39.571 151.004   2.469  1.00  0.00    +0.170 HD
ENDBRANCH   4  14
TORSDOF 2
ENDMDL
MODEL 9
REMARK VINA RESULT:    -7.444      1.887      7.351
REMARK INTER + INTRA:          -8.919
REMARK INTER:                  -9.363
REMARK INTRA:                   0.445
REMARK UNBOUND:                -0.605
REMARK SMILES CN(C)c1ccc(/C=C2\C(=O)Nc3ccccc32)c2ccccc12
REMARK SMILES IDX 4 1 5 2 6 3 7 4 19 5 20 6 21 7 22 8 23 9 24 10 2 11 1 12
REMARK SMILES IDX 3 13 8 14 9 15 10 16 18 17 11 18 12 19 17 20 13 21 16 22
REMARK SMILES IDX 14 23 15 24
REMARK H PARENT 12 25
ROOT
ATOM      1  C   UNL     1     -39.035 160.499  -2.652  1.00  0.00    +0.044 A 
ATOM      2  C   UNL     1     -39.135 160.041  -3.974  1.00  0.00    +0.027 A 
ATOM      3  C   UNL     1     -39.042 160.923  -5.047  1.00  0.00    +0.011 A 
ATOM      4  C   UNL     1     -38.861 162.292  -4.827  1.00  0.00    -0.017 A 
ATOM      5  C   UNL     1     -38.757 162.798  -3.504  1.00  0.00    -0.009 A 
ATOM      6  C   UNL     1     -38.574 164.175  -3.223  1.00  0.00    +0.009 A 
ATOM      7  C   UNL     1     -38.465 164.655  -1.918  1.00  0.00    +0.001 A 
ATOM      8  C   UNL     1     -38.534 163.769  -0.854  1.00  0.00    +0.001 A 
ATOM      9  C   UNL     1     -38.719 162.409  -1.101  1.00  0.00    +0.011 A 
ATOM     10  C   UNL     1     -38.842 161.891  -2.411  1.00  0.00    +0.006 A 
ENDROOT
BRANCH   1  11
ATOM     11  N   UNL     1     -39.168 159.605  -1.553  1.00  0.00    -0.377 N 
ATOM     12  C   UNL     1     -40.504 159.726  -0.959  1.00  0.00    +0.143 C 
ATOM     13  C   UNL     1     -38.755 158.231  -1.832  1.00  0.00    +0.143 C 
ENDBRANCH   1  11
BRANCH   4  14
ATOM     14  C   UNL     1     -38.736 163.165  -6.006  1.00  0.00    +0.023 C 
ATOM     15  C   UNL     1     -37.895 162.982  -7.034  1.00  0.00    +0.050 C 
ATOM     16  C   UNL     1     -36.896 161.865  -7.225  1.00  0.00    +0.256 C 
ATOM     17  C   UNL     1     -37.796 163.850  -8.213  1.00  0.00    +0.011 A 
ATOM     18  O   UNL     1     -36.640 160.934  -6.489  1.00  0.00    -0.269 OA
ATOM     19  N   UNL     1     -36.301 162.129  -8.451  1.00  0.00    -0.321 N 
ATOM     20  C   UNL     1     -38.444 165.011  -8.597  1.00  0.00    +0.011 A 
ATOM     21  C   UNL     1     -36.818 163.281  -9.034  1.00  0.00    +0.049 A 
ATOM     22  C   UNL     1     -38.091 165.587  -9.822  1.00  0.00    +0.001 A 
ATOM     23  C   UNL     1     -36.453 163.832 -10.245  1.00  0.00    +0.027 A 
ATOM     24  C   UNL     1     -37.105 165.004 -10.639  1.00  0.00    +0.002 A 
ATOM     25  H   UNL     1     -35.586 161.536  -8.842  1.00  0.00    +0.170 HD
ENDBRANCH   4  14
TORSDOF 2
ENDMDL
MODEL 10
REMARK VINA RESULT:    -7.239     12.645     15.070
REMARK INTER + INTRA:          -8.690
REMARK INTER:                  -7.913
REMARK INTRA:                  -0.777
REMARK UNBOUND:                -0.605
REMARK SMILES CN(C)c1ccc(/C=C2\C(=O)Nc3ccccc32)c2ccccc12
REMARK SMILES IDX 4 1 5 2 6 3 7 4 19 5 20 6 21 7 22 8 23 9 24 10 2 11 1 12
REMARK SMILES IDX 3 13 8 14 9 15 10 16 18 17 11 18 12 19 17 20 13 21 16 22
REMARK SMILES IDX 14 23 15 24
REMARK H PARENT 12 25
ROOT
ATOM      1  C   UNL     1     -39.843 148.115   5.536  1.00  0.00    +0.044 A 
ATOM      2  C   UNL     1     -39.164 148.312   6.747  1.00  0.00    +0.027 A 
ATOM      3  C   UNL     1     -38.442 149.479   6.982  1.00  0.00    +0.011 A 
ATOM      4  C   UNL     1     -38.367 150.477   6.004  1.00  0.00    -0.017 A 
ATOM      5  C   UNL     1     -39.038 150.315   4.763  1.00  0.00    -0.009 A 
ATOM      6  C   UNL     1     -38.996 151.292   3.737  1.00  0.00    +0.009 A 
ATOM      7  C   UNL     1     -39.668 151.122   2.527  1.00  0.00    +0.001 A 
ATOM      8  C   UNL     1     -40.405 149.970   2.308  1.00  0.00    +0.001 A 
ATOM      9  C   UNL     1     -40.460 148.989   3.298  1.00  0.00    +0.011 A 
ATOM     10  C   UNL     1     -39.784 149.126   4.532  1.00  0.00    +0.006 A 
ENDROOT
BRANCH   1  11
ATOM     11  N   UNL     1     -40.550 146.907   5.280  1.00  0.00    -0.377 N 
ATOM     12  C   UNL     1     -39.609 145.821   4.983  1.00  0.00    +0.143 C 
ATOM     13  C   UNL     1     -41.564 146.570   6.277  1.00  0.00    +0.143 C 
ENDBRANCH   1  11
BRANCH   4  14
ATOM     14  C   UNL     1     -37.616 151.700   6.329  1.00  0.00    +0.023 C 
ATOM     15  C   UNL     1     -36.304 151.893   6.126  1.00  0.00    +0.050 C 
ATOM     16  C   UNL     1     -35.306 150.927   5.533  1.00  0.00    +0.256 C 
ATOM     17  C   UNL     1     -35.571 153.126   6.437  1.00  0.00    +0.011 A 
ATOM     18  O   UNL     1     -35.481 149.789   5.145  1.00  0.00    -0.269 OA
ATOM     19  N   UNL     1     -34.104 151.620   5.526  1.00  0.00    -0.321 N 
ATOM     20  C   UNL     1     -35.942 154.340   6.989  1.00  0.00    +0.011 A 
ATOM     21  C   UNL     1     -34.248 152.900   6.049  1.00  0.00    +0.049 A 
ATOM     22  C   UNL     1     -34.956 155.320   7.144  1.00  0.00    +0.001 A 
ATOM     23  C   UNL     1     -33.259 153.851   6.192  1.00  0.00    +0.027 A 
ATOM     24  C   UNL     1     -33.627 155.079   6.749  1.00  0.00    +0.002 A 
ATOM     25  H   UNL     1     -33.250 151.214   5.176  1.00  0.00    +0.170 HD
ENDBRANCH   4  14
TORSDOF 2
ENDMDL
