MODEL 1
REMARK VINA RESULT:    -8.627      0.000      0.000
REMARK INTER + INTRA:         -12.578
REMARK INTER:                 -12.158
REMARK INTRA:                  -0.421
REMARK UNBOUND:                -0.421
REMARK SMILES CCN(CC)CCNC(=O)c1c(C)[nH]c(/C=C2\C(=O)Nc3ccc(F)cc32)c1C
REMARK SMILES IDX 7 1 6 2 3 3 2 4 1 5 4 6 5 7 8 8 9 9 10 10 11 12 12 13 28 14
REMARK SMILES IDX 14 15 15 16 13 17 29 18 16 20 17 21 18 22 27 23 19 24 20 25
REMARK SMILES IDX 26 26 21 27 24 28 22 29 23 30 25 32
REMARK H PARENT 8 11 14 19 20 31
ROOT
ATOM      1  C   UNL     1      -8.434   5.973 -19.309  1.00  0.00    +0.131 C 
ENDROOT
BRANCH   1   2
ATOM      2  C   UNL     1      -9.085   7.277 -18.818  1.00  0.00    +0.105 C 
BRANCH   2   3
ATOM      3  N   UNL     1      -9.955   7.879 -19.842  1.00  0.00    -0.302 NA
BRANCH   3   4
ATOM      4  C   UNL     1     -10.347   6.944 -20.907  1.00  0.00    +0.081 C 
ATOM      5  C   UNL     1      -9.958   7.413 -22.305  1.00  0.00    +0.021 C 
ENDBRANCH   3   4
BRANCH   3   6
ATOM      6  C   UNL     1      -9.392   9.125 -20.390  1.00  0.00    +0.081 C 
ATOM      7  C   UNL     1      -8.783  10.090 -19.376  1.00  0.00    +0.021 C 
ENDBRANCH   3   6
ENDBRANCH   2   3
ENDBRANCH   1   2
BRANCH   1   8
ATOM      8  N   UNL     1      -8.825   4.841 -18.489  1.00  0.00    -0.351 N 
ATOM      9  C   UNL     1      -7.895   4.162 -17.731  1.00  0.00    +0.253 C 
ATOM     10  O   UNL     1      -6.690   4.386 -17.795  1.00  0.00    -0.269 OA
ATOM     11  H   UNL     1      -9.770   4.818 -18.133  1.00  0.00    +0.163 HD
BRANCH   9  12
ATOM     12  C   UNL     1      -8.468   3.193 -16.789  1.00  0.00    +0.063 A 
ATOM     13  C   UNL     1      -8.118   1.858 -16.631  1.00  0.00    +0.025 A 
ATOM     14  C   UNL     1      -9.492   3.463 -15.810  1.00  0.00    -0.013 A 
ATOM     15  N   UNL     1      -8.914   1.331 -15.643  1.00  0.00    -0.358 N 
ATOM     16  C   UNL     1      -9.741   2.286 -15.111  1.00  0.00    +0.043 A 
ATOM     17  C   UNL     1      -7.083   1.009 -17.281  1.00  0.00    +0.065 C 
ATOM     18  C   UNL     1     -10.145   4.791 -15.605  1.00  0.00    +0.047 C 
ATOM     19  H   UNL     1      -8.865   0.365 -15.335  1.00  0.00    +0.166 HD
BRANCH  16  20
ATOM     20  C   UNL     1     -10.634   2.007 -14.036  1.00  0.00    +0.041 C 
ATOM     21  C   UNL     1     -10.587   1.036 -13.108  1.00  0.00    +0.051 C 
ATOM     22  C   UNL     1      -9.590  -0.077 -12.883  1.00  0.00    +0.256 C 
ATOM     23  C   UNL     1     -11.610   0.885 -12.054  1.00  0.00    +0.014 A 
ATOM     24  O   UNL     1      -8.580  -0.327 -13.513  1.00  0.00    -0.269 OA
ATOM     25  N   UNL     1     -10.057  -0.777 -11.783  1.00  0.00    -0.321 N 
ATOM     26  C   UNL     1     -12.759   1.587 -11.733  1.00  0.00    +0.050 A 
ATOM     27  C   UNL     1     -11.232  -0.226 -11.290  1.00  0.00    +0.049 A 
ATOM     28  C   UNL     1     -13.504   1.148 -10.638  1.00  0.00    +0.123 A 
ATOM     29  C   UNL     1     -11.960  -0.673 -10.204  1.00  0.00    +0.030 A 
ATOM     30  C   UNL     1     -13.118   0.033  -9.879  1.00  0.00    +0.041 A 
ATOM     31  H   UNL     1      -9.577  -1.580 -11.407  1.00  0.00    +0.170 HD
ATOM     32  F   UNL     1     -14.621   1.807 -10.303  1.00  0.00    -0.207 F 
ENDBRANCH  16  20
ENDBRANCH   9  12
ENDBRANCH   1   8
TORSDOF 7
ENDMDL
MODEL 2
REMARK VINA RESULT:    -8.625      1.835      2.676
REMARK INTER + INTRA:         -12.575
REMARK INTER:                 -12.136
REMARK INTRA:                  -0.439
REMARK UNBOUND:                -0.421
REMARK SMILES CCN(CC)CCNC(=O)c1c(C)[nH]c(/C=C2\C(=O)Nc3ccc(F)cc32)c1C
REMARK SMILES IDX 7 1 6 2 3 3 2 4 1 5 4 6 5 7 8 8 9 9 10 10 11 12 12 13 28 14
REMARK SMILES IDX 14 15 15 16 13 17 29 18 16 20 17 21 18 22 27 23 19 24 20 25
REMARK SMILES IDX 26 26 21 27 24 28 22 29 23 30 25 32
REMARK H PARENT 8 11 14 19 20 31
ROOT
ATOM      1  C   UNL     1     -10.177   5.273 -18.590  1.00  0.00    +0.131 C 
ENDROOT
BRANCH   1   2
ATOM      2  C   UNL     1      -8.936   6.163 -18.767  1.00  0.00    +0.105 C 
BRANCH   2   3
ATOM      3  N   UNL     1      -9.214   7.335 -19.615  1.00  0.00    -0.302 NA
BRANCH   3   4
ATOM      4  C   UNL     1      -9.393   8.582 -18.857  1.00  0.00    +0.081 C 
ATOM      5  C   UNL     1      -8.900   9.821 -19.597  1.00  0.00    +0.021 C 
ENDBRANCH   3   4
BRANCH   3   6
ATOM      6  C   UNL     1     -10.330   7.097 -20.546  1.00  0.00    +0.081 C 
ATOM      7  C   UNL     1     -10.020   7.290 -22.029  1.00  0.00    +0.021 C 
ENDBRANCH   3   6
ENDBRANCH   2   3
ENDBRANCH   1   2
BRANCH   1   8
ATOM      8  N   UNL     1     -10.134   4.541 -17.337  1.00  0.00    -0.351 N 
ATOM      9  C   UNL     1     -10.684   5.071 -16.189  1.00  0.00    +0.253 C 
ATOM     10  O   UNL     1     -11.123   6.214 -16.125  1.00  0.00    -0.269 OA
ATOM     11  H   UNL     1     -10.112   3.532 -17.379  1.00  0.00    +0.163 HD
BRANCH   9  12
ATOM     12  C   UNL     1     -10.764   4.131 -15.064  1.00  0.00    +0.063 A 
ATOM     13  C   UNL     1      -9.736   3.368 -14.524  1.00  0.00    +0.025 A 
ATOM     14  C   UNL     1     -11.937   3.850 -14.273  1.00  0.00    -0.013 A 
ATOM     15  N   UNL     1     -10.261   2.630 -13.492  1.00  0.00    -0.358 N 
ATOM     16  C   UNL     1     -11.588   2.917 -13.301  1.00  0.00    +0.043 A 
ATOM     17  C   UNL     1      -8.285   3.273 -14.841  1.00  0.00    +0.065 C 
ATOM     18  C   UNL     1     -13.276   4.475 -14.485  1.00  0.00    +0.047 C 
ATOM     19  H   UNL     1      -9.718   1.981 -12.930  1.00  0.00    +0.166 HD
BRANCH  16  20
ATOM     20  C   UNL     1     -12.354   2.319 -12.260  1.00  0.00    +0.041 C 
ATOM     21  C   UNL     1     -12.172   1.154 -11.617  1.00  0.00    +0.051 C 
ATOM     22  C   UNL     1     -11.109   0.089 -11.769  1.00  0.00    +0.256 C 
ATOM     23  C   UNL     1     -13.076   0.676 -10.551  1.00  0.00    +0.014 A 
ATOM     24  O   UNL     1     -10.158   0.073 -12.527  1.00  0.00    -0.269 OA
ATOM     25  N   UNL     1     -11.433  -0.892 -10.847  1.00  0.00    -0.321 N 
ATOM     26  C   UNL     1     -14.216   1.197  -9.964  1.00  0.00    +0.050 A 
ATOM     27  C   UNL     1     -12.574  -0.562 -10.131  1.00  0.00    +0.049 A 
ATOM     28  C   UNL     1     -14.827   0.448  -8.957  1.00  0.00    +0.123 A 
ATOM     29  C   UNL     1     -13.170  -1.314  -9.135  1.00  0.00    +0.030 A 
ATOM     30  C   UNL     1     -14.319  -0.791  -8.543  1.00  0.00    +0.041 A 
ATOM     31  H   UNL     1     -10.882  -1.730 -10.730  1.00  0.00    +0.170 HD
ATOM     32  F   UNL     1     -15.932   0.926  -8.371  1.00  0.00    -0.207 F 
ENDBRANCH  16  20
ENDBRANCH   9  12
ENDBRANCH   1   8
TORSDOF 7
ENDMDL
MODEL 3
REMARK VINA RESULT:    -8.593      2.833      9.450
REMARK INTER + INTRA:         -12.530
REMARK INTER:                 -11.409
REMARK INTRA:                  -1.121
REMARK UNBOUND:                -0.421
REMARK SMILES CCN(CC)CCNC(=O)c1c(C)[nH]c(/C=C2\C(=O)Nc3ccc(F)cc32)c1C
REMARK SMILES IDX 7 1 6 2 3 3 2 4 1 5 4 6 5 7 8 8 9 9 10 10 11 12 12 13 28 14
REMARK SMILES IDX 14 15 15 16 13 17 29 18 16 20 17 21 18 22 27 23 19 24 20 25
REMARK SMILES IDX 26 26 21 27 24 28 22 29 23 30 25 32
REMARK H PARENT 8 11 14 19 20 31
ROOT
ATOM      1  C   UNL     1     -11.564  -1.252  -9.910  1.00  0.00    +0.131 C 
ENDROOT
BRANCH   1   2
ATOM      2  C   UNL     1     -12.296  -0.371  -8.884  1.00  0.00    +0.105 C 
BRANCH   2   3
ATOM      3  N   UNL     1     -13.733  -0.686  -8.813  1.00  0.00    -0.302 NA
BRANCH   3   4
ATOM      4  C   UNL     1     -14.133  -1.815  -9.666  1.00  0.00    +0.081 C 
ATOM      5  C   UNL     1     -15.361  -2.560  -9.156  1.00  0.00    +0.021 C 
ENDBRANCH   3   4
BRANCH   3   6
ATOM      6  C   UNL     1     -14.576   0.499  -9.046  1.00  0.00    +0.081 C 
ATOM      7  C   UNL     1     -14.479   1.131 -10.432  1.00  0.00    +0.021 C 
ENDBRANCH   3   6
ENDBRANCH   2   3
ENDBRANCH   1   2
BRANCH   1   8
ATOM      8  N   UNL     1     -10.685  -0.465 -10.756  1.00  0.00    -0.351 N 
ATOM      9  C   UNL     1     -10.405  -0.860 -12.047  1.00  0.00    +0.253 C 
ATOM     10  O   UNL     1     -10.771  -1.936 -12.510  1.00  0.00    -0.269 OA
ATOM     11  H   UNL     1     -10.632   0.530 -10.589  1.00  0.00    +0.163 HD
BRANCH   9  12
ATOM     12  C   UNL     1      -9.690   0.141 -12.848  1.00  0.00    +0.063 A 
ATOM     13  C   UNL     1      -8.331   0.179 -13.137  1.00  0.00    +0.025 A 
ATOM     14  C   UNL     1     -10.282   1.268 -13.526  1.00  0.00    -0.013 A 
ATOM     15  N   UNL     1      -8.100   1.290 -13.911  1.00  0.00    -0.358 N 
ATOM     16  C   UNL     1      -9.266   1.958 -14.181  1.00  0.00    +0.043 A 
ATOM     17  C   UNL     1      -7.209  -0.738 -12.802  1.00  0.00    +0.065 C 
ATOM     18  C   UNL     1     -11.737   1.602 -13.511  1.00  0.00    +0.047 C 
ATOM     19  H   UNL     1      -7.183   1.556 -14.256  1.00  0.00    +0.166 HD
BRANCH  16  20
ATOM     20  C   UNL     1      -9.306   3.120 -15.005  1.00  0.00    +0.041 C 
ATOM     21  C   UNL     1      -8.719   3.355 -16.191  1.00  0.00    +0.051 C 
ATOM     22  C   UNL     1      -7.831   2.485 -17.051  1.00  0.00    +0.256 C 
ATOM     23  C   UNL     1      -8.861   4.634 -16.916  1.00  0.00    +0.014 A 
ATOM     24  O   UNL     1      -7.459   1.345 -16.843  1.00  0.00    -0.269 OA
ATOM     25  N   UNL     1      -7.518   3.254 -18.158  1.00  0.00    -0.321 N 
ATOM     26  C   UNL     1      -9.539   5.810 -16.650  1.00  0.00    +0.050 A 
ATOM     27  C   UNL     1      -8.112   4.507 -18.093  1.00  0.00    +0.049 A 
ATOM     28  C   UNL     1      -9.446   6.839 -17.587  1.00  0.00    +0.123 A 
ATOM     29  C   UNL     1      -8.010   5.518 -19.030  1.00  0.00    +0.030 A 
ATOM     30  C   UNL     1      -8.694   6.705 -18.763  1.00  0.00    +0.041 A 
ATOM     31  H   UNL     1      -6.932   2.916 -18.907  1.00  0.00    +0.170 HD
ATOM     32  F   UNL     1     -10.092   7.990 -17.358  1.00  0.00    -0.207 F 
ENDBRANCH  16  20
ENDBRANCH   9  12
ENDBRANCH   1   8
TORSDOF 7
ENDMDL
MODEL 4
REMARK VINA RESULT:    -8.494      3.424     10.176
REMARK INTER + INTRA:         -12.391
REMARK INTER:                 -11.685
REMARK INTRA:                  -0.705
REMARK UNBOUND:                -0.421
REMARK SMILES CCN(CC)CCNC(=O)c1c(C)[nH]c(/C=C2\C(=O)Nc3ccc(F)cc32)c1C
REMARK SMILES IDX 7 1 6 2 3 3 2 4 1 5 4 6 5 7 8 8 9 9 10 10 11 12 12 13 28 14
REMARK SMILES IDX 14 15 15 16 13 17 29 18 16 20 17 21 18 22 27 23 19 24 20 25
REMARK SMILES IDX 26 26 21 27 24 28 22 29 23 30 25 32
REMARK H PARENT 8 11 14 19 20 31
ROOT
ATOM      1  C   UNL     1     -10.080  -2.262  -9.719  1.00  0.00    +0.131 C 
ENDROOT
BRANCH   1   2
ATOM      2  C   UNL     1     -11.316  -2.259  -8.806  1.00  0.00    +0.105 C 
BRANCH   2   3
ATOM      3  N   UNL     1     -12.292  -3.290  -9.195  1.00  0.00    -0.302 NA
BRANCH   3   4
ATOM      4  C   UNL     1     -11.678  -4.494  -9.776  1.00  0.00    +0.081 C 
ATOM      5  C   UNL     1     -12.505  -5.759  -9.571  1.00  0.00    +0.021 C 
ENDBRANCH   3   4
BRANCH   3   6
ATOM      6  C   UNL     1     -13.359  -2.752 -10.057  1.00  0.00    +0.081 C 
ATOM      7  C   UNL     1     -14.709  -2.515  -9.385  1.00  0.00    +0.021 C 
ENDBRANCH   3   6
ENDBRANCH   2   3
ENDBRANCH   1   2
BRANCH   1   8
ATOM      8  N   UNL     1     -10.064  -1.107 -10.598  1.00  0.00    -0.351 N 
ATOM      9  C   UNL     1     -10.497  -1.205 -11.904  1.00  0.00    +0.253 C 
ATOM     10  O   UNL     1     -10.798  -2.272 -12.429  1.00  0.00    -0.269 OA
ATOM     11  H   UNL     1     -10.161  -0.192 -10.180  1.00  0.00    +0.163 HD
BRANCH   9  12
ATOM     12  C   UNL     1     -10.634   0.082 -12.597  1.00  0.00    +0.063 A 
ATOM     13  C   UNL     1     -11.519   1.112 -12.302  1.00  0.00    +0.025 A 
ATOM     14  C   UNL     1      -9.835   0.539 -13.707  1.00  0.00    -0.013 A 
ATOM     15  N   UNL     1     -11.303   2.120 -13.209  1.00  0.00    -0.358 N 
ATOM     16  C   UNL     1     -10.274   1.812 -14.059  1.00  0.00    +0.043 A 
ATOM     17  C   UNL     1     -12.537   1.282 -11.230  1.00  0.00    +0.065 C 
ATOM     18  C   UNL     1      -8.731  -0.244 -14.341  1.00  0.00    +0.047 C 
ATOM     19  H   UNL     1     -11.826   2.991 -13.219  1.00  0.00    +0.166 HD
BRANCH  16  20
ATOM     20  C   UNL     1      -9.819   2.713 -15.064  1.00  0.00    +0.041 C 
ATOM     21  C   UNL     1     -10.330   3.893 -15.457  1.00  0.00    +0.051 C 
ATOM     22  C   UNL     1     -11.540   4.662 -14.979  1.00  0.00    +0.256 C 
ATOM     23  C   UNL     1      -9.729   4.708 -16.532  1.00  0.00    +0.014 A 
ATOM     24  O   UNL     1     -12.326   4.364 -14.099  1.00  0.00    -0.269 OA
ATOM     25  N   UNL     1     -11.581   5.808 -15.755  1.00  0.00    -0.321 N 
ATOM     26  C   UNL     1      -8.621   4.545 -17.345  1.00  0.00    +0.050 A 
ATOM     27  C   UNL     1     -10.532   5.848 -16.662  1.00  0.00    +0.049 A 
ATOM     28  C   UNL     1      -8.347   5.547 -18.277  1.00  0.00    +0.123 A 
ATOM     29  C   UNL     1     -10.273   6.848 -17.580  1.00  0.00    +0.030 A 
ATOM     30  C   UNL     1      -9.157   6.686 -18.401  1.00  0.00    +0.041 A 
ATOM     31  H   UNL     1     -12.296   6.512 -15.645  1.00  0.00    +0.170 HD
ATOM     32  F   UNL     1      -7.281   5.418 -19.078  1.00  0.00    -0.207 F 
ENDBRANCH  16  20
ENDBRANCH   9  12
ENDBRANCH   1   8
TORSDOF 7
ENDMDL
MODEL 5
REMARK VINA RESULT:    -8.380      2.223      3.326
REMARK INTER + INTRA:         -12.231
REMARK INTER:                 -12.325
REMARK INTRA:                   0.094
REMARK UNBOUND:                -0.421
REMARK SMILES CCN(CC)CCNC(=O)c1c(C)[nH]c(/C=C2\C(=O)Nc3ccc(F)cc32)c1C
REMARK SMILES IDX 7 1 6 2 3 3 2 4 1 5 4 6 5 7 8 8 9 9 10 10 11 12 12 13 28 14
REMARK SMILES IDX 14 15 15 16 13 17 29 18 16 20 17 21 18 22 27 23 19 24 20 25
REMARK SMILES IDX 26 26 21 27 24 28 22 29 23 30 25 32
REMARK H PARENT 8 11 14 19 20 31
ROOT
ATOM      1  C   UNL     1      -9.115   5.470 -18.786  1.00  0.00    +0.131 C 
ENDROOT
BRANCH   1   2
ATOM      2  C   UNL     1     -10.002   6.414 -19.614  1.00  0.00    +0.105 C 
BRANCH   2   3
ATOM      3  N   UNL     1      -9.273   7.619 -20.044  1.00  0.00    -0.302 NA
BRANCH   3   4
ATOM      4  C   UNL     1      -9.260   8.691 -19.038  1.00  0.00    +0.081 C 
ATOM      5  C   UNL     1      -8.862  10.052 -19.600  1.00  0.00    +0.021 C 
ENDBRANCH   3   4
BRANCH   3   6
ATOM      6  C   UNL     1      -9.729   8.109 -21.356  1.00  0.00    +0.081 C 
ATOM      7  C   UNL     1     -10.470   7.099 -22.229  1.00  0.00    +0.021 C 
ENDBRANCH   3   6
ENDBRANCH   2   3
ENDBRANCH   1   2
BRANCH   1   8
ATOM      8  N   UNL     1      -9.848   4.888 -17.676  1.00  0.00    -0.351 N 
ATOM      9  C   UNL     1      -9.202   4.135 -16.719  1.00  0.00    +0.253 C 
ATOM     10  O   UNL     1      -8.021   3.814 -16.807  1.00  0.00    -0.269 OA
ATOM     11  H   UNL     1     -10.684   5.360 -17.361  1.00  0.00    +0.163 HD
BRANCH   9  12
ATOM     12  C   UNL     1     -10.024   3.805 -15.548  1.00  0.00    +0.063 A 
ATOM     13  C   UNL     1     -11.135   4.492 -15.074  1.00  0.00    +0.025 A 
ATOM     14  C   UNL     1      -9.851   2.665 -14.682  1.00  0.00    -0.013 A 
ATOM     15  N   UNL     1     -11.587   3.834 -13.956  1.00  0.00    -0.358 N 
ATOM     16  C   UNL     1     -10.842   2.711 -13.706  1.00  0.00    +0.043 A 
ATOM     17  C   UNL     1     -11.860   5.691 -15.573  1.00  0.00    +0.065 C 
ATOM     18  C   UNL     1      -8.784   1.632 -14.838  1.00  0.00    +0.047 C 
ATOM     19  H   UNL     1     -12.389   4.134 -13.411  1.00  0.00    +0.166 HD
BRANCH  16  20
ATOM     20  C   UNL     1     -11.135   1.826 -12.629  1.00  0.00    +0.041 C 
ATOM     21  C   UNL     1     -12.282   1.646 -11.951  1.00  0.00    +0.051 C 
ATOM     22  C   UNL     1     -13.635   2.304 -12.092  1.00  0.00    +0.256 C 
ATOM     23  C   UNL     1     -12.414   0.678 -10.843  1.00  0.00    +0.014 A 
ATOM     24  O   UNL     1     -13.982   3.159 -12.886  1.00  0.00    -0.269 OA
ATOM     25  N   UNL     1     -14.432   1.726 -11.119  1.00  0.00    -0.321 N 
ATOM     26  C   UNL     1     -11.540  -0.215 -10.248  1.00  0.00    +0.050 A 
ATOM     27  C   UNL     1     -13.734   0.777 -10.386  1.00  0.00    +0.049 A 
ATOM     28  C   UNL     1     -12.024  -0.994  -9.196  1.00  0.00    +0.123 A 
ATOM     29  C   UNL     1     -14.227   0.013  -9.345  1.00  0.00    +0.030 A 
ATOM     30  C   UNL     1     -13.347  -0.888  -8.743  1.00  0.00    +0.041 A 
ATOM     31  H   UNL     1     -15.400   1.981 -10.987  1.00  0.00    +0.170 HD
ATOM     32  F   UNL     1     -11.201  -1.866  -8.600  1.00  0.00    -0.207 F 
ENDBRANCH  16  20
ENDBRANCH   9  12
ENDBRANCH   1   8
TORSDOF 7
ENDMDL
MODEL 6
REMARK VINA RESULT:    -8.270      2.010      2.874
REMARK INTER + INTRA:         -12.075
REMARK INTER:                 -10.918
REMARK INTRA:                  -1.157
REMARK UNBOUND:                -0.421
REMARK SMILES CCN(CC)CCNC(=O)c1c(C)[nH]c(/C=C2\C(=O)Nc3ccc(F)cc32)c1C
REMARK SMILES IDX 7 1 6 2 3 3 2 4 1 5 4 6 5 7 8 8 9 9 10 10 11 12 12 13 28 14
REMARK SMILES IDX 14 15 15 16 13 17 29 18 16 20 17 21 18 22 27 23 19 24 20 25
REMARK SMILES IDX 26 26 21 27 24 28 22 29 23 30 25 32
REMARK H PARENT 8 11 14 19 20 31
ROOT
ATOM      1  C   UNL     1      -7.361   4.368 -17.775  1.00  0.00    +0.131 C 
ENDROOT
BRANCH   1   2
ATOM      2  C   UNL     1      -8.182   5.659 -17.623  1.00  0.00    +0.105 C 
BRANCH   2   3
ATOM      3  N   UNL     1      -9.270   5.740 -18.611  1.00  0.00    -0.302 NA
BRANCH   3   4
ATOM      4  C   UNL     1      -8.992   6.665 -19.720  1.00  0.00    +0.081 C 
ATOM      5  C   UNL     1     -10.080   7.713 -19.927  1.00  0.00    +0.021 C 
ENDBRANCH   3   4
BRANCH   3   6
ATOM      6  C   UNL     1     -10.574   6.016 -17.984  1.00  0.00    +0.081 C 
ATOM      7  C   UNL     1     -10.733   5.560 -16.536  1.00  0.00    +0.021 C 
ENDBRANCH   3   6
ENDBRANCH   2   3
ENDBRANCH   1   2
BRANCH   1   8
ATOM      8  N   UNL     1      -7.954   3.270 -17.031  1.00  0.00    -0.351 N 
ATOM      9  C   UNL     1      -7.276   2.675 -15.988  1.00  0.00    +0.253 C 
ATOM     10  O   UNL     1      -6.113   2.944 -15.708  1.00  0.00    -0.269 OA
ATOM     11  H   UNL     1      -8.961   3.228 -16.970  1.00  0.00    +0.163 HD
BRANCH   9  12
ATOM     12  C   UNL     1      -8.083   1.740 -15.194  1.00  0.00    +0.063 A 
ATOM     13  C   UNL     1      -8.159   0.360 -15.333  1.00  0.00    +0.025 A 
ATOM     14  C   UNL     1      -8.930   2.084 -14.078  1.00  0.00    -0.013 A 
ATOM     15  N   UNL     1      -9.037  -0.107 -14.385  1.00  0.00    -0.358 N 
ATOM     16  C   UNL     1      -9.504   0.912 -13.596  1.00  0.00    +0.043 A 
ATOM     17  C   UNL     1      -7.468  -0.596 -16.239  1.00  0.00    +0.065 C 
ATOM     18  C   UNL     1      -9.129   3.469 -13.555  1.00  0.00    +0.047 C 
ATOM     19  H   UNL     1      -9.278  -1.088 -14.275  1.00  0.00    +0.166 HD
BRANCH  16  20
ATOM     20  C   UNL     1     -10.393   0.685 -12.506  1.00  0.00    +0.041 C 
ATOM     21  C   UNL     1     -11.643   1.137 -12.306  1.00  0.00    +0.051 C 
ATOM     22  C   UNL     1     -12.526   2.025 -13.152  1.00  0.00    +0.256 C 
ATOM     23  C   UNL     1     -12.432   0.806 -11.103  1.00  0.00    +0.014 A 
ATOM     24  O   UNL     1     -12.282   2.525 -14.234  1.00  0.00    -0.269 OA
ATOM     25  N   UNL     1     -13.706   2.161 -12.440  1.00  0.00    -0.321 N 
ATOM     26  C   UNL     1     -12.178   0.042  -9.977  1.00  0.00    +0.050 A 
ATOM     27  C   UNL     1     -13.665   1.455 -11.246  1.00  0.00    +0.049 A 
ATOM     28  C   UNL     1     -13.185  -0.051  -9.015  1.00  0.00    +0.123 A 
ATOM     29  C   UNL     1     -14.670   1.373 -10.301  1.00  0.00    +0.030 A 
ATOM     30  C   UNL     1     -14.417   0.603  -9.166  1.00  0.00    +0.041 A 
ATOM     31  H   UNL     1     -14.484   2.708 -12.777  1.00  0.00    +0.170 HD
ATOM     32  F   UNL     1     -12.969  -0.783  -7.915  1.00  0.00    -0.207 F 
ENDBRANCH  16  20
ENDBRANCH   9  12
ENDBRANCH   1   8
TORSDOF 7
ENDMDL
MODEL 7
REMARK VINA RESULT:    -8.223      4.098     10.727
REMARK INTER + INTRA:         -12.009
REMARK INTER:                 -10.470
REMARK INTRA:                  -1.539
REMARK UNBOUND:                -0.421
REMARK SMILES CCN(CC)CCNC(=O)c1c(C)[nH]c(/C=C2\C(=O)Nc3ccc(F)cc32)c1C
REMARK SMILES IDX 7 1 6 2 3 3 2 4 1 5 4 6 5 7 8 8 9 9 10 10 11 12 12 13 28 14
REMARK SMILES IDX 14 15 15 16 13 17 29 18 16 20 17 21 18 22 27 23 19 24 20 25
REMARK SMILES IDX 26 26 21 27 24 28 22 29 23 30 25 32
REMARK H PARENT 8 11 14 19 20 31
ROOT
ATOM      1  C   UNL     1     -15.981  -1.899  -8.334  1.00  0.00    +0.131 C 
ENDROOT
BRANCH   1   2
ATOM      2  C   UNL     1     -15.618  -3.315  -7.858  1.00  0.00    +0.105 C 
BRANCH   2   3
ATOM      3  N   UNL     1     -14.161  -3.501  -7.741  1.00  0.00    -0.302 NA
BRANCH   3   4
ATOM      4  C   UNL     1     -13.657  -4.680  -8.460  1.00  0.00    +0.081 C 
ATOM      5  C   UNL     1     -13.329  -4.408  -9.924  1.00  0.00    +0.021 C 
ENDBRANCH   3   4
BRANCH   3   6
ATOM      6  C   UNL     1     -13.707  -3.480  -6.340  1.00  0.00    +0.081 C 
ATOM      7  C   UNL     1     -13.301  -2.117  -5.786  1.00  0.00    +0.021 C 
ENDBRANCH   3   6
ENDBRANCH   2   3
ENDBRANCH   1   2
BRANCH   1   8
ATOM      8  N   UNL     1     -14.954  -1.349  -9.200  1.00  0.00    -0.351 N 
ATOM      9  C   UNL     1     -14.340  -0.152  -8.897  1.00  0.00    +0.253 C 
ATOM     10  O   UNL     1     -14.698   0.566  -7.969  1.00  0.00    -0.269 OA
ATOM     11  H   UNL     1     -14.397  -1.994  -9.744  1.00  0.00    +0.163 HD
BRANCH   9  12
ATOM     12  C   UNL     1     -13.176   0.163  -9.735  1.00  0.00    +0.063 A 
ATOM     13  C   UNL     1     -11.900  -0.382  -9.650  1.00  0.00    +0.025 A 
ATOM     14  C   UNL     1     -13.152   1.082 -10.845  1.00  0.00    -0.013 A 
ATOM     15  N   UNL     1     -11.130   0.205 -10.623  1.00  0.00    -0.358 N 
ATOM     16  C   UNL     1     -11.866   1.081 -11.378  1.00  0.00    +0.043 A 
ATOM     17  C   UNL     1     -11.316  -1.432  -8.773  1.00  0.00    +0.065 C 
ATOM     18  C   UNL     1     -14.324   1.878 -11.317  1.00  0.00    +0.047 C 
ATOM     19  H   UNL     1     -10.149  -0.012 -10.773  1.00  0.00    +0.166 HD
BRANCH  16  20
ATOM     20  C   UNL     1     -11.311   1.786 -12.485  1.00  0.00    +0.041 C 
ATOM     21  C   UNL     1     -10.566   1.333 -13.508  1.00  0.00    +0.051 C 
ATOM     22  C   UNL     1     -10.067  -0.055 -13.837  1.00  0.00    +0.256 C 
ATOM     23  C   UNL     1     -10.062   2.212 -14.582  1.00  0.00    +0.014 A 
ATOM     24  O   UNL     1     -10.253  -1.091 -13.225  1.00  0.00    -0.269 OA
ATOM     25  N   UNL     1      -9.340   0.080 -15.007  1.00  0.00    -0.321 N 
ATOM     26  C   UNL     1     -10.181   3.566 -14.840  1.00  0.00    +0.050 A 
ATOM     27  C   UNL     1      -9.331   1.394 -15.453  1.00  0.00    +0.049 A 
ATOM     28  C   UNL     1      -9.554   4.067 -15.982  1.00  0.00    +0.123 A 
ATOM     29  C   UNL     1      -8.704   1.876 -16.586  1.00  0.00    +0.030 A 
ATOM     30  C   UNL     1      -8.823   3.241 -16.849  1.00  0.00    +0.041 A 
ATOM     31  H   UNL     1      -8.890  -0.702 -15.460  1.00  0.00    +0.170 HD
ATOM     32  F   UNL     1      -9.651   5.374 -16.258  1.00  0.00    -0.207 F 
ENDBRANCH  16  20
ENDBRANCH   9  12
ENDBRANCH   1   8
TORSDOF 7
ENDMDL
MODEL 8
REMARK VINA RESULT:    -8.164      3.012      9.855
REMARK INTER + INTRA:         -11.926
REMARK INTER:                 -11.568
REMARK INTRA:                  -0.358
REMARK UNBOUND:                -0.421
REMARK SMILES CCN(CC)CCNC(=O)c1c(C)[nH]c(/C=C2\C(=O)Nc3ccc(F)cc32)c1C
REMARK SMILES IDX 7 1 6 2 3 3 2 4 1 5 4 6 5 7 8 8 9 9 10 10 11 12 12 13 28 14
REMARK SMILES IDX 14 15 15 16 13 17 29 18 16 20 17 21 18 22 27 23 19 24 20 25
REMARK SMILES IDX 26 26 21 27 24 28 22 29 23 30 25 32
REMARK H PARENT 8 11 14 19 20 31
ROOT
ATOM      1  C   UNL     1     -12.140   0.202  -9.030  1.00  0.00    +0.131 C 
ENDROOT
BRANCH   1   2
ATOM      2  C   UNL     1     -12.423  -1.292  -8.802  1.00  0.00    +0.105 C 
BRANCH   2   3
ATOM      3  N   UNL     1     -13.319  -1.846  -9.831  1.00  0.00    -0.302 NA
BRANCH   3   4
ATOM      4  C   UNL     1     -14.717  -1.966  -9.393  1.00  0.00    +0.081 C 
ATOM      5  C   UNL     1     -14.872  -2.147  -7.886  1.00  0.00    +0.021 C 
ENDBRANCH   3   4
BRANCH   3   6
ATOM      6  C   UNL     1     -12.811  -3.112 -10.389  1.00  0.00    +0.081 C 
ATOM      7  C   UNL     1     -11.330  -3.402 -10.158  1.00  0.00    +0.021 C 
ENDBRANCH   3   6
ENDBRANCH   2   3
ENDBRANCH   1   2
BRANCH   1   8
ATOM      8  N   UNL     1     -11.589   0.444 -10.351  1.00  0.00    -0.351 N 
ATOM      9  C   UNL     1     -12.325   1.097 -11.316  1.00  0.00    +0.253 C 
ATOM     10  O   UNL     1     -13.505   1.397 -11.166  1.00  0.00    -0.269 OA
ATOM     11  H   UNL     1     -10.586   0.539 -10.436  1.00  0.00    +0.163 HD
BRANCH   9  12
ATOM     12  C   UNL     1     -11.564   1.466 -12.516  1.00  0.00    +0.063 A 
ATOM     13  C   UNL     1     -10.526   0.758 -13.110  1.00  0.00    +0.025 A 
ATOM     14  C   UNL     1     -11.783   2.631 -13.337  1.00  0.00    -0.013 A 
ATOM     15  N   UNL     1     -10.105   1.473 -14.204  1.00  0.00    -0.358 N 
ATOM     16  C   UNL     1     -10.863   2.602 -14.380  1.00  0.00    +0.043 A 
ATOM     17  C   UNL     1      -9.893  -0.550 -12.790  1.00  0.00    +0.065 C 
ATOM     18  C   UNL     1     -12.830   3.666 -13.084  1.00  0.00    +0.047 C 
ATOM     19  H   UNL     1      -9.349   1.178 -14.814  1.00  0.00    +0.166 HD
BRANCH  16  20
ATOM     20  C   UNL     1     -10.660   3.493 -15.474  1.00  0.00    +0.041 C 
ATOM     21  C   UNL     1      -9.550   3.735 -16.192  1.00  0.00    +0.051 C 
ATOM     22  C   UNL     1      -8.156   3.159 -16.095  1.00  0.00    +0.256 C 
ATOM     23  C   UNL     1      -9.512   4.707 -17.304  1.00  0.00    +0.014 A 
ATOM     24  O   UNL     1      -7.738   2.317 -15.322  1.00  0.00    -0.269 OA
ATOM     25  N   UNL     1      -7.425   3.788 -17.087  1.00  0.00    -0.321 N 
ATOM     26  C   UNL     1     -10.458   5.541 -17.873  1.00  0.00    +0.050 A 
ATOM     27  C   UNL     1      -8.202   4.691 -17.799  1.00  0.00    +0.049 A 
ATOM     28  C   UNL     1     -10.055   6.346 -18.940  1.00  0.00    +0.123 A 
ATOM     29  C   UNL     1      -7.789   5.482 -18.854  1.00  0.00    +0.030 A 
ATOM     30  C   UNL     1      -8.741   6.324 -19.430  1.00  0.00    +0.041 A 
ATOM     31  H   UNL     1      -6.449   3.589 -17.251  1.00  0.00    +0.170 HD
ATOM     32  F   UNL     1     -10.948   7.164 -19.512  1.00  0.00    -0.207 F 
ENDBRANCH  16  20
ENDBRANCH   9  12
ENDBRANCH   1   8
TORSDOF 7
ENDMDL
MODEL 9
REMARK VINA RESULT:    -8.145      3.949     11.141
REMARK INTER + INTRA:         -11.900
REMARK INTER:                 -11.095
REMARK INTRA:                  -0.804
REMARK UNBOUND:                -0.421
REMARK SMILES CCN(CC)CCNC(=O)c1c(C)[nH]c(/C=C2\C(=O)Nc3ccc(F)cc32)c1C
REMARK SMILES IDX 7 1 6 2 3 3 2 4 1 5 4 6 5 7 8 8 9 9 10 10 11 12 12 13 28 14
REMARK SMILES IDX 14 15 15 16 13 17 29 18 16 20 17 21 18 22 27 23 19 24 20 25
REMARK SMILES IDX 26 26 21 27 24 28 22 29 23 30 25 32
REMARK H PARENT 8 11 14 19 20 31
ROOT
ATOM      1  C   UNL     1     -15.000  -2.843  -8.473  1.00  0.00    +0.131 C 
ENDROOT
BRANCH   1   2
ATOM      2  C   UNL     1     -16.420  -2.276  -8.312  1.00  0.00    +0.105 C 
BRANCH   2   3
ATOM      3  N   UNL     1     -17.144  -2.912  -7.199  1.00  0.00    -0.302 NA
BRANCH   3   4
ATOM      4  C   UNL     1     -18.046  -1.997  -6.482  1.00  0.00    +0.081 C 
ATOM      5  C   UNL     1     -19.278  -1.600  -7.288  1.00  0.00    +0.021 C 
ENDBRANCH   3   4
BRANCH   3   6
ATOM      6  C   UNL     1     -16.240  -3.620  -6.277  1.00  0.00    +0.081 C 
ATOM      7  C   UNL     1     -16.625  -5.055  -5.927  1.00  0.00    +0.021 C 
ENDBRANCH   3   6
ENDBRANCH   2   3
ENDBRANCH   1   2
BRANCH   1   8
ATOM      8  N   UNL     1     -14.204  -2.035  -9.379  1.00  0.00    -0.351 N 
ATOM      9  C   UNL     1     -13.479  -0.958  -8.914  1.00  0.00    +0.253 C 
ATOM     10  O   UNL     1     -13.556  -0.549  -7.760  1.00  0.00    -0.269 OA
ATOM     11  H   UNL     1     -13.833  -2.478 -10.208  1.00  0.00    +0.163 HD
BRANCH   9  12
ATOM     12  C   UNL     1     -12.553  -0.379  -9.896  1.00  0.00    +0.063 A 
ATOM     13  C   UNL     1     -11.259  -0.793 -10.185  1.00  0.00    +0.025 A 
ATOM     14  C   UNL     1     -12.836   0.721 -10.785  1.00  0.00    -0.013 A 
ATOM     15  N   UNL     1     -10.764   0.035 -11.162  1.00  0.00    -0.358 N 
ATOM     16  C   UNL     1     -11.704   0.949 -11.561  1.00  0.00    +0.043 A 
ATOM     17  C   UNL     1     -10.428  -1.916  -9.672  1.00  0.00    +0.065 C 
ATOM     18  C   UNL     1     -14.132   1.461 -10.838  1.00  0.00    +0.047 C 
ATOM     19  H   UNL     1      -9.829  -0.048 -11.552  1.00  0.00    +0.166 HD
BRANCH  16  20
ATOM     20  C   UNL     1     -11.456   1.894 -12.598  1.00  0.00    +0.041 C 
ATOM     21  C   UNL     1     -10.670   1.794 -13.684  1.00  0.00    +0.051 C 
ATOM     22  C   UNL     1      -9.794   0.665 -14.177  1.00  0.00    +0.256 C 
ATOM     23  C   UNL     1     -10.521   2.885 -14.669  1.00  0.00    +0.014 A 
ATOM     24  O   UNL     1      -9.620  -0.431 -13.679  1.00  0.00    -0.269 OA
ATOM     25  N   UNL     1      -9.213   1.130 -15.345  1.00  0.00    -0.321 N 
ATOM     26  C   UNL     1     -11.060   4.155 -14.773  1.00  0.00    +0.050 A 
ATOM     27  C   UNL     1      -9.629   2.420 -15.643  1.00  0.00    +0.049 A 
ATOM     28  C   UNL     1     -10.684   4.932 -15.869  1.00  0.00    +0.123 A 
ATOM     29  C   UNL     1      -9.246   3.179 -16.733  1.00  0.00    +0.030 A 
ATOM     30  C   UNL     1      -9.789   4.459 -16.840  1.00  0.00    +0.041 A 
ATOM     31  H   UNL     1      -8.574   0.573 -15.893  1.00  0.00    +0.170 HD
ATOM     32  F   UNL     1     -11.189   6.166 -15.997  1.00  0.00    -0.207 F 
ENDBRANCH  16  20
ENDBRANCH   9  12
ENDBRANCH   1   8
TORSDOF 7
ENDMDL
MODEL 10
REMARK VINA RESULT:    -8.099      2.837      9.281
REMARK INTER + INTRA:         -11.834
REMARK INTER:                 -10.717
REMARK INTRA:                  -1.117
REMARK UNBOUND:                -0.421
REMARK SMILES CCN(CC)CCNC(=O)c1c(C)[nH]c(/C=C2\C(=O)Nc3ccc(F)cc32)c1C
REMARK SMILES IDX 7 1 6 2 3 3 2 4 1 5 4 6 5 7 8 8 9 9 10 10 11 12 12 13 28 14
REMARK SMILES IDX 14 15 15 16 13 17 29 18 16 20 17 21 18 22 27 23 19 24 20 25
REMARK SMILES IDX 26 26 21 27 24 28 22 29 23 30 25 32
REMARK H PARENT 8 11 14 19 20 31
ROOT
ATOM      1  C   UNL     1      -8.524  -2.403  -9.959  1.00  0.00    +0.131 C 
ENDROOT
BRANCH   1   2
ATOM      2  C   UNL     1      -9.962  -2.185  -9.458  1.00  0.00    +0.105 C 
BRANCH   2   3
ATOM      3  N   UNL     1     -10.843  -1.671 -10.520  1.00  0.00    -0.302 NA
BRANCH   3   4
ATOM      4  C   UNL     1     -11.965  -0.865 -10.017  1.00  0.00    +0.081 C 
ATOM      5  C   UNL     1     -11.958   0.574 -10.522  1.00  0.00    +0.021 C 
ENDBRANCH   3   4
BRANCH   3   6
ATOM      6  C   UNL     1     -11.300  -2.735 -11.430  1.00  0.00    +0.081 C 
ATOM      7  C   UNL     1     -12.404  -3.646 -10.898  1.00  0.00    +0.021 C 
ENDBRANCH   3   6
ENDBRANCH   2   3
ENDBRANCH   1   2
BRANCH   1   8
ATOM      8  N   UNL     1      -8.091  -1.319 -10.822  1.00  0.00    -0.351 N 
ATOM      9  C   UNL     1      -7.604  -1.573 -12.087  1.00  0.00    +0.253 C 
ATOM     10  O   UNL     1      -7.396  -2.706 -12.507  1.00  0.00    -0.269 OA
ATOM     11  H   UNL     1      -8.525  -0.414 -10.701  1.00  0.00    +0.163 HD
BRANCH   9  12
ATOM     12  C   UNL     1      -7.419  -0.377 -12.918  1.00  0.00    +0.063 A 
ATOM     13  C   UNL     1      -6.223   0.255 -13.235  1.00  0.00    +0.025 A 
ATOM     14  C   UNL     1      -8.458   0.352 -13.602  1.00  0.00    -0.013 A 
ATOM     15  N   UNL     1      -6.520   1.335 -14.031  1.00  0.00    -0.358 N 
ATOM     16  C   UNL     1      -7.864   1.407 -14.289  1.00  0.00    +0.043 A 
ATOM     17  C   UNL     1      -4.806  -0.057 -12.907  1.00  0.00    +0.065 C 
ATOM     18  C   UNL     1      -9.910   0.003 -13.563  1.00  0.00    +0.047 C 
ATOM     19  H   UNL     1      -5.821   1.973 -14.399  1.00  0.00    +0.166 HD
BRANCH  16  20
ATOM     20  C   UNL     1      -8.426   2.410 -15.130  1.00  0.00    +0.041 C 
ATOM     21  C   UNL     1      -7.889   3.050 -16.183  1.00  0.00    +0.051 C 
ATOM     22  C   UNL     1      -6.528   2.932 -16.831  1.00  0.00    +0.256 C 
ATOM     23  C   UNL     1      -8.617   4.080 -16.951  1.00  0.00    +0.014 A 
ATOM     24  O   UNL     1      -5.607   2.197 -16.528  1.00  0.00    -0.269 OA
ATOM     25  N   UNL     1      -6.533   3.844 -17.872  1.00  0.00    -0.321 N 
ATOM     26  C   UNL     1      -9.885   4.625 -16.851  1.00  0.00    +0.050 A 
ATOM     27  C   UNL     1      -7.744   4.518 -17.954  1.00  0.00    +0.049 A 
ATOM     28  C   UNL     1     -10.245   5.607 -17.775  1.00  0.00    +0.123 A 
ATOM     29  C   UNL     1      -8.086   5.490 -18.875  1.00  0.00    +0.030 A 
ATOM     30  C   UNL     1      -9.364   6.040 -18.776  1.00  0.00    +0.041 A 
ATOM     31  H   UNL     1      -5.741   3.976 -18.483  1.00  0.00    +0.170 HD
ATOM     32  F   UNL     1     -11.466   6.152 -17.703  1.00  0.00    -0.207 F 
ENDBRANCH  16  20
ENDBRANCH   9  12
ENDBRANCH   1   8
TORSDOF 7
ENDMDL
