MODEL 1
REMARK VINA RESULT:    -9.342      0.000      0.000
REMARK INTER + INTRA:         -12.221
REMARK INTER:                 -12.619
REMARK INTRA:                   0.398
REMARK UNBOUND:                 0.398
REMARK SMILES COc1cc2nccc(Oc3ccc(NC(=O)Nc4cc(C)on4)c(Cl)c3)c2cc1OC
REMARK SMILES IDX 11 1 12 2 13 3 14 4 25 5 26 6 27 7 10 8 9 9 3 10 4 11 30 12
REMARK SMILES IDX 5 13 29 14 6 15 28 16 7 17 8 18 2 19 1 20 31 21 32 22 15 23
REMARK SMILES IDX 16 24 17 25 18 26 19 29 20 30 24 31 21 32 23 33 22 34
REMARK H PARENT 15 27 18 28
ROOT
ATOM      1  C   UNL     1     -11.831   1.436 -11.846  1.00  0.00    +0.129 A 
ATOM      2  C   UNL     1     -13.107   1.994 -11.933  1.00  0.00    +0.049 A 
ATOM      3  C   UNL     1     -14.140   1.523 -11.113  1.00  0.00    +0.031 A 
ATOM      4  C   UNL     1     -13.911   0.486 -10.205  1.00  0.00    +0.061 A 
ATOM      5  C   UNL     1     -12.625  -0.086 -10.152  1.00  0.00    +0.068 A 
ATOM      6 Cl   UNL     1     -12.278  -1.393  -9.069  1.00  0.00    -0.082 Cl
ATOM      7  C   UNL     1     -11.592   0.381 -10.968  1.00  0.00    +0.069 A 
ENDROOT
BRANCH   1   8
ATOM      8  O   UNL     1     -10.775   1.824 -12.639  1.00  0.00    -0.457 OA
BRANCH   8   9
ATOM      9  C   UNL     1     -11.012   2.815 -13.569  1.00  0.00    +0.138 A 
ATOM     10  C   UNL     1      -8.407   3.382 -16.833  1.00  0.00    +0.162 A 
ATOM     11  C   UNL     1      -9.518   4.206 -16.619  1.00  0.00    +0.079 A 
ATOM     12  C   UNL     1      -8.141   2.333 -15.938  1.00  0.00    +0.161 A 
ATOM     13  C   UNL     1     -10.373   4.022 -15.541  1.00  0.00    +0.078 A 
ATOM     14  C   UNL     1      -8.994   2.136 -14.850  1.00  0.00    +0.064 A 
ATOM     15  N   UNL     1     -11.419   4.856 -15.398  1.00  0.00    -0.256 NA
ATOM     16  C   UNL     1     -10.113   2.972 -14.642  1.00  0.00    +0.047 A 
ATOM     17  C   UNL     1     -12.242   4.682 -14.342  1.00  0.00    +0.115 A 
ATOM     18  C   UNL     1     -12.082   3.690 -13.401  1.00  0.00    +0.068 A 
BRANCH  10  19
ATOM     19  O   UNL     1      -7.530   3.520 -17.881  1.00  0.00    -0.493 OA
ATOM     20  C   UNL     1      -7.408   4.803 -18.475  1.00  0.00    +0.278 C 
ENDBRANCH  10  19
BRANCH  12  21
ATOM     21  O   UNL     1      -7.037   1.567 -16.212  1.00  0.00    -0.493 OA
ATOM     22  C   UNL     1      -7.114   0.174 -15.946  1.00  0.00    +0.278 C 
ENDBRANCH  12  21
ENDBRANCH   8   9
ENDBRANCH   1   8
BRANCH   4  23
ATOM     23  N   UNL     1     -14.914  -0.038  -9.353  1.00  0.00    -0.306 N 
ATOM     24  C   UNL     1     -15.538   0.591  -8.283  1.00  0.00    +0.324 C 
ATOM     25  O   UNL     1     -15.242   1.703  -7.869  1.00  0.00    -0.248 OA
ATOM     26  N   UNL     1     -16.534  -0.220  -7.769  1.00  0.00    -0.289 N 
ATOM     27  H   UNL     1     -15.074  -1.030  -9.455  1.00  0.00    +0.171 HD
ATOM     28  H   UNL     1     -16.816  -1.029  -8.296  1.00  0.00    +0.173 HD
BRANCH  26  29
ATOM     29  C   UNL     1     -17.296   0.078  -6.654  1.00  0.00    +0.177 A 
ATOM     30  C   UNL     1     -18.603   0.623  -6.726  1.00  0.00    +0.095 A 
ATOM     31  N   UNL     1     -16.941  -0.111  -5.380  1.00  0.00    -0.062 NA
ATOM     32  C   UNL     1     -19.000   0.756  -5.419  1.00  0.00    +0.135 A 
ATOM     33  O   UNL     1     -18.003   0.316  -4.609  1.00  0.00    -0.360 OA
ATOM     34  C   UNL     1     -20.216   1.247  -4.753  1.00  0.00    +0.091 C 
ENDBRANCH  26  29
ENDBRANCH   4  23
TORSDOF 6
ENDMDL
MODEL 2
REMARK VINA RESULT:    -9.211      3.883     10.954
REMARK INTER + INTRA:         -12.044
REMARK INTER:                 -11.037
REMARK INTRA:                  -1.007
REMARK UNBOUND:                 0.398
REMARK SMILES COc1cc2nccc(Oc3ccc(NC(=O)Nc4cc(C)on4)c(Cl)c3)c2cc1OC
REMARK SMILES IDX 11 1 12 2 13 3 14 4 25 5 26 6 27 7 10 8 9 9 3 10 4 11 30 12
REMARK SMILES IDX 5 13 29 14 6 15 28 16 7 17 8 18 2 19 1 20 31 21 32 22 15 23
REMARK SMILES IDX 16 24 17 25 18 26 19 29 20 30 24 31 21 32 23 33 22 34
REMARK H PARENT 15 27 18 28
ROOT
ATOM      1  C   UNL     1     -10.204  -0.008 -13.448  1.00  0.00    +0.129 A 
ATOM      2  C   UNL     1      -9.012   0.082 -14.168  1.00  0.00    +0.049 A 
ATOM      3  C   UNL     1      -8.666   1.276 -14.812  1.00  0.00    +0.031 A 
ATOM      4  C   UNL     1      -9.510   2.387 -14.753  1.00  0.00    +0.061 A 
ATOM      5  C   UNL     1     -10.723   2.269 -14.048  1.00  0.00    +0.068 A 
ATOM      6 Cl   UNL     1     -11.831   3.599 -13.955  1.00  0.00    -0.082 Cl
ATOM      7  C   UNL     1     -11.072   1.080 -13.402  1.00  0.00    +0.069 A 
ENDROOT
BRANCH   1   8
ATOM      8  O   UNL     1     -10.626  -1.155 -12.815  1.00  0.00    -0.457 OA
BRANCH   8   9
ATOM      9  C   UNL     1     -10.131  -1.399 -11.549  1.00  0.00    +0.138 A 
ATOM     10  C   UNL     1     -12.481  -0.647  -8.132  1.00  0.00    +0.162 A 
ATOM     11  C   UNL     1     -11.163  -1.109  -8.039  1.00  0.00    +0.079 A 
ATOM     12  C   UNL     1     -13.047  -0.419  -9.397  1.00  0.00    +0.161 A 
ATOM     13  C   UNL     1     -10.388  -1.352  -9.165  1.00  0.00    +0.078 A 
ATOM     14  C   UNL     1     -12.279  -0.661 -10.538  1.00  0.00    +0.064 A 
ATOM     15  N   UNL     1      -9.128  -1.794  -8.998  1.00  0.00    -0.256 NA
ATOM     16  C   UNL     1     -10.950  -1.128 -10.435  1.00  0.00    +0.047 A 
ATOM     17  C   UNL     1      -8.373  -2.018 -10.094  1.00  0.00    +0.115 A 
ATOM     18  C   UNL     1      -8.819  -1.830 -11.383  1.00  0.00    +0.068 A 
BRANCH  10  19
ATOM     19  O   UNL     1     -13.291  -0.390  -7.053  1.00  0.00    -0.493 OA
ATOM     20  C   UNL     1     -12.778   0.449  -6.028  1.00  0.00    +0.278 C 
ENDBRANCH  10  19
BRANCH  12  21
ATOM     21  O   UNL     1     -14.341   0.033  -9.411  1.00  0.00    -0.493 OA
ATOM     22  C   UNL     1     -14.671   1.071 -10.322  1.00  0.00    +0.278 C 
ENDBRANCH  12  21
ENDBRANCH   8   9
ENDBRANCH   1   8
BRANCH   4  23
ATOM     23  N   UNL     1      -9.220   3.620 -15.387  1.00  0.00    -0.306 N 
ATOM     24  C   UNL     1      -9.370   3.944 -16.730  1.00  0.00    +0.324 C 
ATOM     25  O   UNL     1      -9.719   3.153 -17.595  1.00  0.00    -0.248 OA
ATOM     26  N   UNL     1      -9.073   5.280 -16.934  1.00  0.00    -0.289 N 
ATOM     27  H   UNL     1      -8.707   4.276 -14.815  1.00  0.00    +0.171 HD
ATOM     28  H   UNL     1      -8.977   5.879 -16.132  1.00  0.00    +0.173 HD
BRANCH  26  29
ATOM     29  C   UNL     1      -9.054   5.903 -18.168  1.00  0.00    +0.177 A 
ATOM     30  C   UNL     1      -9.986   6.899 -18.553  1.00  0.00    +0.095 A 
ATOM     31  N   UNL     1      -8.173   5.687 -19.149  1.00  0.00    -0.062 NA
ATOM     32  C   UNL     1      -9.614   7.255 -19.825  1.00  0.00    +0.135 A 
ATOM     33  O   UNL     1      -8.526   6.528 -20.185  1.00  0.00    -0.360 OA
ATOM     34  C   UNL     1     -10.123   8.210 -20.822  1.00  0.00    +0.091 C 
ENDBRANCH  26  29
ENDBRANCH   4  23
TORSDOF 6
ENDMDL
MODEL 3
REMARK VINA RESULT:    -9.000      2.199      3.405
REMARK INTER + INTRA:         -11.759
REMARK INTER:                 -11.077
REMARK INTRA:                  -0.681
REMARK UNBOUND:                 0.398
REMARK SMILES COc1cc2nccc(Oc3ccc(NC(=O)Nc4cc(C)on4)c(Cl)c3)c2cc1OC
REMARK SMILES IDX 11 1 12 2 13 3 14 4 25 5 26 6 27 7 10 8 9 9 3 10 4 11 30 12
REMARK SMILES IDX 5 13 29 14 6 15 28 16 7 17 8 18 2 19 1 20 31 21 32 22 15 23
REMARK SMILES IDX 16 24 17 25 18 26 19 29 20 30 24 31 21 32 23 33 22 34
REMARK H PARENT 15 27 18 28
ROOT
ATOM      1  C   UNL     1     -10.420   0.093 -13.417  1.00  0.00    +0.129 A 
ATOM      2  C   UNL     1     -11.133   1.267 -13.167  1.00  0.00    +0.049 A 
ATOM      3  C   UNL     1     -11.793   1.443 -11.945  1.00  0.00    +0.031 A 
ATOM      4  C   UNL     1     -11.758   0.447 -10.966  1.00  0.00    +0.061 A 
ATOM      5  C   UNL     1     -11.059  -0.743 -11.248  1.00  0.00    +0.068 A 
ATOM      6 Cl   UNL     1     -10.996  -2.031 -10.090  1.00  0.00    -0.082 Cl
ATOM      7  C   UNL     1     -10.398  -0.923 -12.465  1.00  0.00    +0.069 A 
ENDROOT
BRANCH   1   8
ATOM      8  O   UNL     1      -9.771  -0.165 -14.603  1.00  0.00    -0.457 OA
BRANCH   8   9
ATOM      9  C   UNL     1      -8.497   0.345 -14.753  1.00  0.00    +0.138 A 
ATOM     10  C   UNL     1      -7.857   4.007 -16.739  1.00  0.00    +0.162 A 
ATOM     11  C   UNL     1      -6.799   3.237 -16.242  1.00  0.00    +0.079 A 
ATOM     12  C   UNL     1      -9.177   3.553 -16.579  1.00  0.00    +0.161 A 
ATOM     13  C   UNL     1      -7.010   2.030 -15.592  1.00  0.00    +0.078 A 
ATOM     14  C   UNL     1      -9.404   2.340 -15.927  1.00  0.00    +0.064 A 
ATOM     15  N   UNL     1      -5.943   1.343 -15.144  1.00  0.00    -0.256 NA
ATOM     16  C   UNL     1      -8.329   1.570 -15.428  1.00  0.00    +0.047 A 
ATOM     17  C   UNL     1      -6.151   0.162 -14.523  1.00  0.00    +0.115 A 
ATOM     18  C   UNL     1      -7.397  -0.382 -14.310  1.00  0.00    +0.068 A 
BRANCH  10  19
ATOM     19  O   UNL     1      -7.706   5.207 -17.389  1.00  0.00    -0.493 OA
ATOM     20  C   UNL     1      -7.714   5.195 -18.808  1.00  0.00    +0.278 C 
ENDBRANCH  10  19
BRANCH  12  21
ATOM     21  O   UNL     1     -10.162   4.359 -17.090  1.00  0.00    -0.493 OA
ATOM     22  C   UNL     1     -10.839   5.229 -16.194  1.00  0.00    +0.278 C 
ENDBRANCH  12  21
ENDBRANCH   8   9
ENDBRANCH   1   8
BRANCH   4  23
ATOM     23  N   UNL     1     -12.410   0.563  -9.714  1.00  0.00    -0.306 N 
ATOM     24  C   UNL     1     -13.729   0.253  -9.408  1.00  0.00    +0.324 C 
ATOM     25  O   UNL     1     -14.561  -0.106 -10.229  1.00  0.00    -0.248 OA
ATOM     26  N   UNL     1     -13.953   0.408  -8.052  1.00  0.00    -0.289 N 
ATOM     27  H   UNL     1     -11.886   1.068  -9.014  1.00  0.00    +0.171 HD
ATOM     28  H   UNL     1     -13.161   0.528  -7.444  1.00  0.00    +0.173 HD
BRANCH  26  29
ATOM     29  C   UNL     1     -15.179   0.252  -7.432  1.00  0.00    +0.177 A 
ATOM     30  C   UNL     1     -15.441  -0.753  -6.467  1.00  0.00    +0.095 A 
ATOM     31  N   UNL     1     -16.265   1.007  -7.624  1.00  0.00    -0.062 NA
ATOM     32  C   UNL     1     -16.750  -0.557  -6.104  1.00  0.00    +0.135 A 
ATOM     33  O   UNL     1     -17.246   0.499  -6.798  1.00  0.00    -0.360 OA
ATOM     34  C   UNL     1     -17.674  -1.218  -5.168  1.00  0.00    +0.091 C 
ENDBRANCH  26  29
ENDBRANCH   4  23
TORSDOF 6
ENDMDL
MODEL 4
REMARK VINA RESULT:    -8.935      2.839      3.695
REMARK INTER + INTRA:         -11.670
REMARK INTER:                 -11.770
REMARK INTRA:                   0.100
REMARK UNBOUND:                 0.398
REMARK SMILES COc1cc2nccc(Oc3ccc(NC(=O)Nc4cc(C)on4)c(Cl)c3)c2cc1OC
REMARK SMILES IDX 11 1 12 2 13 3 14 4 25 5 26 6 27 7 10 8 9 9 3 10 4 11 30 12
REMARK SMILES IDX 5 13 29 14 6 15 28 16 7 17 8 18 2 19 1 20 31 21 32 22 15 23
REMARK SMILES IDX 16 24 17 25 18 26 19 29 20 30 24 31 21 32 23 33 22 34
REMARK H PARENT 15 27 18 28
ROOT
ATOM      1  C   UNL     1     -12.515   1.820 -11.841  1.00  0.00    +0.129 A 
ATOM      2  C   UNL     1     -13.892   1.876 -11.619  1.00  0.00    +0.049 A 
ATOM      3  C   UNL     1     -14.461   1.185 -10.542  1.00  0.00    +0.031 A 
ATOM      4  C   UNL     1     -13.663   0.425  -9.683  1.00  0.00    +0.061 A 
ATOM      5  C   UNL     1     -12.280   0.354  -9.940  1.00  0.00    +0.068 A 
ATOM      6 Cl   UNL     1     -11.236  -0.592  -8.931  1.00  0.00    -0.082 Cl
ATOM      7  C   UNL     1     -11.709   1.043 -11.013  1.00  0.00    +0.069 A 
ENDROOT
BRANCH   1   8
ATOM      8  O   UNL     1     -11.888   2.446 -12.894  1.00  0.00    -0.457 OA
BRANCH   8   9
ATOM      9  C   UNL     1     -10.942   1.722 -13.590  1.00  0.00    +0.138 A 
ATOM     10  C   UNL     1      -8.775   3.475 -16.751  1.00  0.00    +0.162 A 
ATOM     11  C   UNL     1      -8.604   2.134 -16.388  1.00  0.00    +0.079 A 
ATOM     12  C   UNL     1      -9.697   4.269 -16.049  1.00  0.00    +0.161 A 
ATOM     13  C   UNL     1      -9.321   1.556 -15.350  1.00  0.00    +0.078 A 
ATOM     14  C   UNL     1     -10.425   3.701 -15.002  1.00  0.00    +0.064 A 
ATOM     15  N   UNL     1      -9.105   0.260 -15.060  1.00  0.00    -0.256 NA
ATOM     16  C   UNL     1     -10.245   2.346 -14.643  1.00  0.00    +0.047 A 
ATOM     17  C   UNL     1      -9.813  -0.303 -14.058  1.00  0.00    +0.115 A 
ATOM     18  C   UNL     1     -10.742   0.375 -13.302  1.00  0.00    +0.068 A 
BRANCH  10  19
ATOM     19  O   UNL     1      -8.093   4.097 -17.768  1.00  0.00    -0.493 OA
ATOM     20  C   UNL     1      -6.698   4.298 -17.600  1.00  0.00    +0.278 C 
ENDBRANCH  10  19
BRANCH  12  21
ATOM     21  O   UNL     1      -9.812   5.573 -16.460  1.00  0.00    -0.493 OA
ATOM     22  C   UNL     1     -11.086   6.192 -16.354  1.00  0.00    +0.278 C 
ENDBRANCH  12  21
ENDBRANCH   8   9
ENDBRANCH   1   8
BRANCH   4  23
ATOM     23  N   UNL     1     -14.179  -0.301  -8.581  1.00  0.00    -0.306 N 
ATOM     24  C   UNL     1     -14.707  -1.586  -8.578  1.00  0.00    +0.324 C 
ATOM     25  O   UNL     1     -14.873  -2.265  -9.581  1.00  0.00    -0.248 OA
ATOM     26  N   UNL     1     -15.008  -1.975  -7.285  1.00  0.00    -0.289 N 
ATOM     27  H   UNL     1     -14.306   0.246  -7.741  1.00  0.00    +0.171 HD
ATOM     28  H   UNL     1     -14.663  -1.417  -6.523  1.00  0.00    +0.173 HD
BRANCH  26  29
ATOM     29  C   UNL     1     -15.617  -3.168  -6.942  1.00  0.00    +0.177 A 
ATOM     30  C   UNL     1     -14.925  -4.404  -6.872  1.00  0.00    +0.095 A 
ATOM     31  N   UNL     1     -16.902  -3.336  -6.617  1.00  0.00    -0.062 NA
ATOM     32  C   UNL     1     -15.876  -5.317  -6.495  1.00  0.00    +0.135 A 
ATOM     33  O   UNL     1     -17.064  -4.679  -6.341  1.00  0.00    -0.360 OA
ATOM     34  C   UNL     1     -15.874  -6.766  -6.236  1.00  0.00    +0.091 C 
ENDBRANCH  26  29
ENDBRANCH   4  23
TORSDOF 6
ENDMDL
MODEL 5
REMARK VINA RESULT:    -8.821      6.223     11.054
REMARK INTER + INTRA:         -11.517
REMARK INTER:                 -10.577
REMARK INTRA:                  -0.941
REMARK UNBOUND:                 0.398
REMARK SMILES COc1cc2nccc(Oc3ccc(NC(=O)Nc4cc(C)on4)c(Cl)c3)c2cc1OC
REMARK SMILES IDX 11 1 12 2 13 3 14 4 25 5 26 6 27 7 10 8 9 9 3 10 4 11 30 12
REMARK SMILES IDX 5 13 29 14 6 15 28 16 7 17 8 18 2 19 1 20 31 21 32 22 15 23
REMARK SMILES IDX 16 24 17 25 18 26 19 29 20 30 24 31 21 32 23 33 22 34
REMARK H PARENT 15 27 18 28
ROOT
ATOM      1  C   UNL     1      -8.180   0.178 -15.049  1.00  0.00    +0.129 A 
ATOM      2  C   UNL     1      -8.006   0.449 -16.408  1.00  0.00    +0.049 A 
ATOM      3  C   UNL     1      -8.542   1.616 -16.967  1.00  0.00    +0.031 A 
ATOM      4  C   UNL     1      -9.263   2.517 -16.180  1.00  0.00    +0.061 A 
ATOM      5  C   UNL     1      -9.454   2.211 -14.818  1.00  0.00    +0.068 A 
ATOM      6 Cl   UNL     1     -10.362   3.271 -13.789  1.00  0.00    -0.082 Cl
ATOM      7  C   UNL     1      -8.921   1.049 -14.256  1.00  0.00    +0.069 A 
ENDROOT
BRANCH   1   8
ATOM      8  O   UNL     1      -7.710  -0.961 -14.435  1.00  0.00    -0.457 OA
BRANCH   8   9
ATOM      9  C   UNL     1      -6.652  -0.818 -13.559  1.00  0.00    +0.138 A 
ATOM     10  C   UNL     1      -7.081  -1.791  -9.481  1.00  0.00    +0.162 A 
ATOM     11  C   UNL     1      -5.888  -1.273  -9.999  1.00  0.00    +0.079 A 
ATOM     12  C   UNL     1      -8.176  -1.993 -10.337  1.00  0.00    +0.161 A 
ATOM     13  C   UNL     1      -5.749  -0.949 -11.341  1.00  0.00    +0.078 A 
ATOM     14  C   UNL     1      -8.050  -1.672 -11.689  1.00  0.00    +0.064 A 
ATOM     15  N   UNL     1      -4.573  -0.453 -11.766  1.00  0.00    -0.256 NA
ATOM     16  C   UNL     1      -6.842  -1.151 -12.203  1.00  0.00    +0.047 A 
ATOM     17  C   UNL     1      -4.444  -0.127 -13.070  1.00  0.00    +0.115 A 
ATOM     18  C   UNL     1      -5.447  -0.280 -14.000  1.00  0.00    +0.068 A 
BRANCH  10  19
ATOM     19  O   UNL     1      -7.273  -2.129  -8.163  1.00  0.00    -0.493 OA
ATOM     20  C   UNL     1      -6.410  -3.106  -7.600  1.00  0.00    +0.278 C 
ENDBRANCH  10  19
BRANCH  12  21
ATOM     21  O   UNL     1      -9.311  -2.503  -9.760  1.00  0.00    -0.493 OA
ATOM     22  C   UNL     1     -10.565  -2.077 -10.273  1.00  0.00    +0.278 C 
ENDBRANCH  12  21
ENDBRANCH   8   9
ENDBRANCH   1   8
BRANCH   4  23
ATOM     23  N   UNL     1      -9.834   3.709 -16.687  1.00  0.00    -0.306 N 
ATOM     24  C   UNL     1      -9.280   4.600 -17.598  1.00  0.00    +0.324 C 
ATOM     25  O   UNL     1      -8.147   4.510 -18.048  1.00  0.00    -0.248 OA
ATOM     26  N   UNL     1     -10.196   5.588 -17.915  1.00  0.00    -0.289 N 
ATOM     27  H   UNL     1     -10.674   4.007 -16.210  1.00  0.00    +0.171 HD
ATOM     28  H   UNL     1     -11.153   5.465 -17.633  1.00  0.00    +0.173 HD
BRANCH  26  29
ATOM     29  C   UNL     1      -9.935   6.670 -18.736  1.00  0.00    +0.177 A 
ATOM     30  C   UNL     1      -9.412   7.899 -18.262  1.00  0.00    +0.095 A 
ATOM     31  N   UNL     1     -10.112   6.719 -20.059  1.00  0.00    -0.062 NA
ATOM     32  C   UNL     1      -9.297   8.685 -19.381  1.00  0.00    +0.135 A 
ATOM     33  O   UNL     1      -9.716   7.979 -20.461  1.00  0.00    -0.360 OA
ATOM     34  C   UNL     1      -8.835  10.060 -19.636  1.00  0.00    +0.091 C 
ENDBRANCH  26  29
ENDBRANCH   4  23
TORSDOF 6
ENDMDL
MODEL 6
REMARK VINA RESULT:    -8.713      2.471      2.831
REMARK INTER + INTRA:         -11.372
REMARK INTER:                 -11.957
REMARK INTRA:                   0.586
REMARK UNBOUND:                 0.398
REMARK SMILES COc1cc2nccc(Oc3ccc(NC(=O)Nc4cc(C)on4)c(Cl)c3)c2cc1OC
REMARK SMILES IDX 11 1 12 2 13 3 14 4 25 5 26 6 27 7 10 8 9 9 3 10 4 11 30 12
REMARK SMILES IDX 5 13 29 14 6 15 28 16 7 17 8 18 2 19 1 20 31 21 32 22 15 23
REMARK SMILES IDX 16 24 17 25 18 26 19 29 20 30 24 31 21 32 23 33 22 34
REMARK H PARENT 15 27 18 28
ROOT
ATOM      1  C   UNL     1     -12.408   1.170 -11.341  1.00  0.00    +0.129 A 
ATOM      2  C   UNL     1     -13.764   1.487 -11.254  1.00  0.00    +0.049 A 
ATOM      3  C   UNL     1     -14.538   0.988 -10.199  1.00  0.00    +0.031 A 
ATOM      4  C   UNL     1     -13.968   0.161  -9.228  1.00  0.00    +0.061 A 
ATOM      5  C   UNL     1     -12.606  -0.174  -9.349  1.00  0.00    +0.068 A 
ATOM      6 Cl   UNL     1     -11.841  -1.217  -8.196  1.00  0.00    -0.082 Cl
ATOM      7  C   UNL     1     -11.830   0.323 -10.400  1.00  0.00    +0.069 A 
ENDROOT
BRANCH   1   8
ATOM      8  O   UNL     1     -11.591   1.597 -12.364  1.00  0.00    -0.457 OA
BRANCH   8   9
ATOM      9  C   UNL     1     -12.060   2.620 -13.164  1.00  0.00    +0.138 A 
ATOM     10  C   UNL     1      -9.573   4.414 -16.055  1.00  0.00    +0.162 A 
ATOM     11  C   UNL     1     -10.884   4.849 -15.832  1.00  0.00    +0.079 A 
ATOM     12  C   UNL     1      -9.058   3.350 -15.295  1.00  0.00    +0.161 A 
ATOM     13  C   UNL     1     -11.701   4.261 -14.876  1.00  0.00    +0.078 A 
ATOM     14  C   UNL     1      -9.870   2.749 -14.331  1.00  0.00    +0.064 A 
ATOM     15  N   UNL     1     -12.951   4.734 -14.716  1.00  0.00    -0.256 NA
ATOM     16  C   UNL     1     -11.192   3.194 -14.114  1.00  0.00    +0.047 A 
ATOM     17  C   UNL     1     -13.739   4.169 -13.778  1.00  0.00    +0.115 A 
ATOM     18  C   UNL     1     -13.344   3.122 -12.975  1.00  0.00    +0.068 A 
BRANCH  10  19
ATOM     19  O   UNL     1      -8.722   4.959 -16.985  1.00  0.00    -0.493 OA
ATOM     20  C   UNL     1      -8.925   6.316 -17.349  1.00  0.00    +0.278 C 
ENDBRANCH  10  19
BRANCH  12  21
ATOM     21  O   UNL     1      -7.767   2.978 -15.569  1.00  0.00    -0.493 OA
ATOM     22  C   UNL     1      -6.927   2.645 -14.473  1.00  0.00    +0.278 C 
ENDBRANCH  12  21
ENDBRANCH   8   9
ENDBRANCH   1   8
BRANCH   4  23
ATOM     23  N   UNL     1     -14.698  -0.381  -8.141  1.00  0.00    -0.306 N 
ATOM     24  C   UNL     1     -15.313  -1.624  -8.062  1.00  0.00    +0.324 C 
ATOM     25  O   UNL     1     -15.372  -2.424  -8.985  1.00  0.00    -0.248 OA
ATOM     26  N   UNL     1     -15.836  -1.817  -6.796  1.00  0.00    -0.289 N 
ATOM     27  H   UNL     1     -14.913   0.282  -7.409  1.00  0.00    +0.171 HD
ATOM     28  H   UNL     1     -15.573  -1.179  -6.064  1.00  0.00    +0.173 HD
BRANCH  26  29
ATOM     29  C   UNL     1     -16.575  -2.919  -6.408  1.00  0.00    +0.177 A 
ATOM     30  C   UNL     1     -16.013  -4.206  -6.218  1.00  0.00    +0.095 A 
ATOM     31  N   UNL     1     -17.885  -2.940  -6.143  1.00  0.00    -0.062 NA
ATOM     32  C   UNL     1     -17.068  -4.996  -5.833  1.00  0.00    +0.135 A 
ATOM     33  O   UNL     1     -18.192  -4.238  -5.788  1.00  0.00    -0.360 OA
ATOM     34  C   UNL     1     -17.221  -6.416  -5.478  1.00  0.00    +0.091 C 
ENDBRANCH  26  29
ENDBRANCH   4  23
TORSDOF 6
ENDMDL
MODEL 7
REMARK VINA RESULT:    -8.671      2.339      3.466
REMARK INTER + INTRA:         -11.314
REMARK INTER:                 -10.252
REMARK INTRA:                  -1.063
REMARK UNBOUND:                 0.398
REMARK SMILES COc1cc2nccc(Oc3ccc(NC(=O)Nc4cc(C)on4)c(Cl)c3)c2cc1OC
REMARK SMILES IDX 11 1 12 2 13 3 14 4 25 5 26 6 27 7 10 8 9 9 3 10 4 11 30 12
REMARK SMILES IDX 5 13 29 14 6 15 28 16 7 17 8 18 2 19 1 20 31 21 32 22 15 23
REMARK SMILES IDX 16 24 17 25 18 26 19 29 20 30 24 31 21 32 23 33 22 34
REMARK H PARENT 15 27 18 28
ROOT
ATOM      1  C   UNL     1     -10.261  -0.327 -12.678  1.00  0.00    +0.129 A 
ATOM      2  C   UNL     1     -10.949   0.885 -12.588  1.00  0.00    +0.049 A 
ATOM      3  C   UNL     1     -11.792   1.137 -11.499  1.00  0.00    +0.031 A 
ATOM      4  C   UNL     1     -11.965   0.180 -10.496  1.00  0.00    +0.061 A 
ATOM      5  C   UNL     1     -11.288  -1.049 -10.620  1.00  0.00    +0.068 A 
ATOM      6 Cl   UNL     1     -11.478  -2.292  -9.427  1.00  0.00    -0.082 Cl
ATOM      7  C   UNL     1     -10.445  -1.304 -11.704  1.00  0.00    +0.069 A 
ENDROOT
BRANCH   1   8
ATOM      8  O   UNL     1      -9.440  -0.659 -13.732  1.00  0.00    -0.457 OA
BRANCH   8   9
ATOM      9  C   UNL     1      -8.138  -0.204 -13.688  1.00  0.00    +0.138 A 
ATOM     10  C   UNL     1      -6.889   3.007 -16.115  1.00  0.00    +0.162 A 
ATOM     11  C   UNL     1      -6.005   2.331 -15.266  1.00  0.00    +0.079 A 
ATOM     12  C   UNL     1      -8.235   2.610 -16.170  1.00  0.00    +0.161 A 
ATOM     13  C   UNL     1      -6.415   1.271 -14.471  1.00  0.00    +0.078 A 
ATOM     14  C   UNL     1      -8.662   1.545 -15.374  1.00  0.00    +0.064 A 
ATOM     15  N   UNL     1      -5.508   0.667 -13.681  1.00  0.00    -0.256 NA
ATOM     16  C   UNL     1      -7.763   0.869 -14.520  1.00  0.00    +0.047 A 
ATOM     17  C   UNL     1      -5.908  -0.372 -12.918  1.00  0.00    +0.115 A 
ATOM     18  C   UNL     1      -7.199  -0.849 -12.889  1.00  0.00    +0.068 A 
BRANCH  10  19
ATOM     19  O   UNL     1      -6.536   4.061 -16.923  1.00  0.00    -0.493 OA
ATOM     20  C   UNL     1      -5.181   4.483 -16.902  1.00  0.00    +0.278 C 
ENDBRANCH  10  19
BRANCH  12  21
ATOM     21  O   UNL     1      -9.042   3.318 -17.023  1.00  0.00    -0.493 OA
ATOM     22  C   UNL     1      -9.943   4.258 -16.455  1.00  0.00    +0.278 C 
ENDBRANCH  12  21
ENDBRANCH   8   9
ENDBRANCH   1   8
BRANCH   4  23
ATOM     23  N   UNL     1     -12.808   0.371  -9.374  1.00  0.00    -0.306 N 
ATOM     24  C   UNL     1     -14.161   0.079  -9.264  1.00  0.00    +0.324 C 
ATOM     25  O   UNL     1     -14.854  -0.334 -10.183  1.00  0.00    -0.248 OA
ATOM     26  N   UNL     1     -14.597   0.318  -7.973  1.00  0.00    -0.289 N 
ATOM     27  H   UNL     1     -12.398   0.921  -8.632  1.00  0.00    +0.171 HD
ATOM     28  H   UNL     1     -13.911   0.478  -7.255  1.00  0.00    +0.173 HD
BRANCH  26  29
ATOM     29  C   UNL     1     -15.908   0.197  -7.548  1.00  0.00    +0.177 A 
ATOM     30  C   UNL     1     -16.456  -1.009  -7.046  1.00  0.00    +0.095 A 
ATOM     31  N   UNL     1     -16.825   1.169  -7.528  1.00  0.00    -0.062 NA
ATOM     32  C   UNL     1     -17.756  -0.701  -6.734  1.00  0.00    +0.135 A 
ATOM     33  O   UNL     1     -17.980   0.606  -7.024  1.00  0.00    -0.360 OA
ATOM     34  C   UNL     1     -18.894  -1.453  -6.181  1.00  0.00    +0.091 C 
ENDBRANCH  26  29
ENDBRANCH   4  23
TORSDOF 6
ENDMDL
MODEL 8
REMARK VINA RESULT:    -8.653      3.335     10.809
REMARK INTER + INTRA:         -11.289
REMARK INTER:                 -10.942
REMARK INTRA:                  -0.348
REMARK UNBOUND:                 0.398
REMARK SMILES COc1cc2nccc(Oc3ccc(NC(=O)Nc4cc(C)on4)c(Cl)c3)c2cc1OC
REMARK SMILES IDX 11 1 12 2 13 3 14 4 25 5 26 6 27 7 10 8 9 9 3 10 4 11 30 12
REMARK SMILES IDX 5 13 29 14 6 15 28 16 7 17 8 18 2 19 1 20 31 21 32 22 15 23
REMARK SMILES IDX 16 24 17 25 18 26 19 29 20 30 24 31 21 32 23 33 22 34
REMARK H PARENT 15 27 18 28
ROOT
ATOM      1  C   UNL     1     -11.695   1.297 -12.205  1.00  0.00    +0.129 A 
ATOM      2  C   UNL     1     -12.703   2.118 -12.715  1.00  0.00    +0.049 A 
ATOM      3  C   UNL     1     -12.381   3.182 -13.566  1.00  0.00    +0.031 A 
ATOM      4  C   UNL     1     -11.052   3.444 -13.908  1.00  0.00    +0.061 A 
ATOM      5  C   UNL     1     -10.046   2.625 -13.359  1.00  0.00    +0.068 A 
ATOM      6 Cl   UNL     1      -8.375   2.910 -13.719  1.00  0.00    -0.082 Cl
ATOM      7  C   UNL     1     -10.362   1.562 -12.511  1.00  0.00    +0.069 A 
ENDROOT
BRANCH   1   8
ATOM      8  O   UNL     1     -11.930   0.252 -11.340  1.00  0.00    -0.457 OA
BRANCH   8   9
ATOM      9  C   UNL     1     -12.799   0.480 -10.293  1.00  0.00    +0.138 A 
ATOM     10  C   UNL     1     -11.631  -0.277  -6.315  1.00  0.00    +0.162 A 
ATOM     11  C   UNL     1     -12.917   0.172  -6.638  1.00  0.00    +0.079 A 
ATOM     12  C   UNL     1     -10.694  -0.488  -7.340  1.00  0.00    +0.161 A 
ATOM     13  C   UNL     1     -13.302   0.417  -7.948  1.00  0.00    +0.078 A 
ATOM     14  C   UNL     1     -11.068  -0.245  -8.663  1.00  0.00    +0.064 A 
ATOM     15  N   UNL     1     -14.556   0.844  -8.183  1.00  0.00    -0.256 NA
ATOM     16  C   UNL     1     -12.368   0.209  -8.979  1.00  0.00    +0.047 A 
ATOM     17  C   UNL     1     -14.933   1.070  -9.459  1.00  0.00    +0.115 A 
ATOM     18  C   UNL     1     -14.103   0.898 -10.544  1.00  0.00    +0.068 A 
BRANCH  10  19
ATOM     19  O   UNL     1     -11.197  -0.535  -5.037  1.00  0.00    -0.493 OA
ATOM     20  C   UNL     1     -12.119  -0.337  -3.975  1.00  0.00    +0.278 C 
ENDBRANCH  10  19
BRANCH  12  21
ATOM     21  O   UNL     1      -9.455  -0.927  -6.949  1.00  0.00    -0.493 OA
ATOM     22  C   UNL     1      -8.398   0.021  -6.907  1.00  0.00    +0.278 C 
ENDBRANCH  12  21
ENDBRANCH   8   9
ENDBRANCH   1   8
BRANCH   4  23
ATOM     23  N   UNL     1     -10.662   4.508 -14.757  1.00  0.00    -0.306 N 
ATOM     24  C   UNL     1     -10.295   4.441 -16.096  1.00  0.00    +0.324 C 
ATOM     25  O   UNL     1     -10.185   3.400 -16.728  1.00  0.00    -0.248 OA
ATOM     26  N   UNL     1     -10.082   5.713 -16.596  1.00  0.00    -0.289 N 
ATOM     27  H   UNL     1     -10.492   5.384 -14.282  1.00  0.00    +0.171 HD
ATOM     28  H   UNL     1     -10.377   6.502 -16.047  1.00  0.00    +0.173 HD
BRANCH  26  29
ATOM     29  C   UNL     1      -9.634   5.992 -17.874  1.00  0.00    +0.177 A 
ATOM     30  C   UNL     1     -10.432   6.632 -18.856  1.00  0.00    +0.095 A 
ATOM     31  N   UNL     1      -8.419   5.729 -18.362  1.00  0.00    -0.062 NA
ATOM     32  C   UNL     1      -9.621   6.725 -19.960  1.00  0.00    +0.135 A 
ATOM     33  O   UNL     1      -8.412   6.183 -19.665  1.00  0.00    -0.360 OA
ATOM     34  C   UNL     1      -9.783   7.264 -21.320  1.00  0.00    +0.091 C 
ENDBRANCH  26  29
ENDBRANCH   4  23
TORSDOF 6
ENDMDL
MODEL 9
REMARK VINA RESULT:    -8.645      5.095     10.131
REMARK INTER + INTRA:         -11.279
REMARK INTER:                 -10.750
REMARK INTRA:                  -0.528
REMARK UNBOUND:                 0.398
REMARK SMILES COc1cc2nccc(Oc3ccc(NC(=O)Nc4cc(C)on4)c(Cl)c3)c2cc1OC
REMARK SMILES IDX 11 1 12 2 13 3 14 4 25 5 26 6 27 7 10 8 9 9 3 10 4 11 30 12
REMARK SMILES IDX 5 13 29 14 6 15 28 16 7 17 8 18 2 19 1 20 31 21 32 22 15 23
REMARK SMILES IDX 16 24 17 25 18 26 19 29 20 30 24 31 21 32 23 33 22 34
REMARK H PARENT 15 27 18 28
ROOT
ATOM      1  C   UNL     1     -10.303   0.117 -13.687  1.00  0.00    +0.129 A 
ATOM      2  C   UNL     1      -9.204   0.630 -14.378  1.00  0.00    +0.049 A 
ATOM      3  C   UNL     1      -9.227   1.943 -14.863  1.00  0.00    +0.031 A 
ATOM      4  C   UNL     1     -10.350   2.753 -14.672  1.00  0.00    +0.061 A 
ATOM      5  C   UNL     1     -11.461   2.208 -14.001  1.00  0.00    +0.068 A 
ATOM      6 Cl   UNL     1     -12.898   3.146 -13.753  1.00  0.00    -0.082 Cl
ATOM      7  C   UNL     1     -11.442   0.899 -13.514  1.00  0.00    +0.069 A 
ENDROOT
BRANCH   1   8
ATOM      8  O   UNL     1     -10.365  -1.172 -13.208  1.00  0.00    -0.457 OA
BRANCH   8   9
ATOM      9  C   UNL     1     -10.236  -1.348 -11.845  1.00  0.00    +0.138 A 
ATOM     10  C   UNL     1      -6.447  -1.937 -10.095  1.00  0.00    +0.162 A 
ATOM     11  C   UNL     1      -7.624  -1.952  -9.338  1.00  0.00    +0.079 A 
ATOM     12  C   UNL     1      -6.519  -1.723 -11.482  1.00  0.00    +0.161 A 
ATOM     13  C   UNL     1      -8.872  -1.763  -9.916  1.00  0.00    +0.078 A 
ATOM     14  C   UNL     1      -7.768  -1.530 -12.075  1.00  0.00    +0.064 A 
ATOM     15  N   UNL     1      -9.960  -1.793  -9.125  1.00  0.00    -0.256 NA
ATOM     16  C   UNL     1      -8.950  -1.547 -11.303  1.00  0.00    +0.047 A 
ATOM     17  C   UNL     1     -11.173  -1.621  -9.691  1.00  0.00    +0.115 A 
ATOM     18  C   UNL     1     -11.367  -1.404 -11.036  1.00  0.00    +0.068 A 
BRANCH  10  19
ATOM     19  O   UNL     1      -5.188  -2.119  -9.576  1.00  0.00    -0.493 OA
ATOM     20  C   UNL     1      -4.809  -1.314  -8.470  1.00  0.00    +0.278 C 
ENDBRANCH  10  19
BRANCH  12  21
ATOM     21  O   UNL     1      -5.326  -1.721 -12.158  1.00  0.00    -0.493 OA
ATOM     22  C   UNL     1      -4.847  -0.478 -12.652  1.00  0.00    +0.278 C 
ENDBRANCH  12  21
ENDBRANCH   8   9
ENDBRANCH   1   8
BRANCH   4  23
ATOM     23  N   UNL     1     -10.438   4.085 -15.144  1.00  0.00    -0.306 N 
ATOM     24  C   UNL     1     -10.090   4.571 -16.398  1.00  0.00    +0.324 C 
ATOM     25  O   UNL     1      -9.569   3.899 -17.277  1.00  0.00    -0.248 OA
ATOM     26  N   UNL     1     -10.420   5.911 -16.499  1.00  0.00    -0.289 N 
ATOM     27  H   UNL     1     -10.636   4.771 -14.428  1.00  0.00    +0.171 HD
ATOM     28  H   UNL     1     -11.007   6.316 -15.790  1.00  0.00    +0.173 HD
BRANCH  26  29
ATOM     29  C   UNL     1     -10.139   6.712 -17.590  1.00  0.00    +0.177 A 
ATOM     30  C   UNL     1     -10.668   6.478 -18.885  1.00  0.00    +0.095 A 
ATOM     31  N   UNL     1      -9.369   7.803 -17.593  1.00  0.00    -0.062 NA
ATOM     32  C   UNL     1     -10.158   7.490 -19.659  1.00  0.00    +0.135 A 
ATOM     33  O   UNL     1      -9.378   8.286 -18.886  1.00  0.00    -0.360 OA
ATOM     34  C   UNL     1     -10.278   7.868 -21.077  1.00  0.00    +0.091 C 
ENDBRANCH  26  29
ENDBRANCH   4  23
TORSDOF 6
ENDMDL
MODEL 10
REMARK VINA RESULT:    -8.569      4.605     11.130
REMARK INTER + INTRA:         -11.176
REMARK INTER:                 -10.319
REMARK INTRA:                  -0.857
REMARK UNBOUND:                 0.398
REMARK SMILES COc1cc2nccc(Oc3ccc(NC(=O)Nc4cc(C)on4)c(Cl)c3)c2cc1OC
REMARK SMILES IDX 11 1 12 2 13 3 14 4 25 5 26 6 27 7 10 8 9 9 3 10 4 11 30 12
REMARK SMILES IDX 5 13 29 14 6 15 28 16 7 17 8 18 2 19 1 20 31 21 32 22 15 23
REMARK SMILES IDX 16 24 17 25 18 26 19 29 20 30 24 31 21 32 23 33 22 34
REMARK H PARENT 15 27 18 28
ROOT
ATOM      1  C   UNL     1      -9.970   0.374 -13.982  1.00  0.00    +0.129 A 
ATOM      2  C   UNL     1     -10.287   1.611 -13.416  1.00  0.00    +0.049 A 
ATOM      3  C   UNL     1      -9.904   2.796 -14.056  1.00  0.00    +0.031 A 
ATOM      4  C   UNL     1      -9.194   2.760 -15.258  1.00  0.00    +0.061 A 
ATOM      5  C   UNL     1      -8.856   1.504 -15.798  1.00  0.00    +0.068 A 
ATOM      6 Cl   UNL     1      -7.953   1.384 -17.272  1.00  0.00    -0.082 Cl
ATOM      7  C   UNL     1      -9.237   0.318 -15.164  1.00  0.00    +0.069 A 
ENDROOT
BRANCH   1   8
ATOM      8  O   UNL     1     -10.285  -0.832 -13.398  1.00  0.00    -0.457 OA
BRANCH   8   9
ATOM      9  C   UNL     1      -9.531  -1.226 -12.311  1.00  0.00    +0.138 A 
ATOM     10  C   UNL     1     -11.381  -2.376  -8.703  1.00  0.00    +0.162 A 
ATOM     11  C   UNL     1      -9.988  -2.334  -8.843  1.00  0.00    +0.079 A 
ATOM     12  C   UNL     1     -12.196  -2.022  -9.791  1.00  0.00    +0.161 A 
ATOM     13  C   UNL     1      -9.380  -1.951 -10.030  1.00  0.00    +0.078 A 
ATOM     14  C   UNL     1     -11.597  -1.635 -10.991  1.00  0.00    +0.064 A 
ATOM     15  N   UNL     1      -8.036  -1.933 -10.090  1.00  0.00    -0.256 NA
ATOM     16  C   UNL     1     -10.191  -1.597 -11.123  1.00  0.00    +0.047 A 
ATOM     17  C   UNL     1      -7.447  -1.549 -11.241  1.00  0.00    +0.115 A 
ATOM     18  C   UNL     1      -8.141  -1.180 -12.371  1.00  0.00    +0.068 A 
BRANCH  10  19
ATOM     19  O   UNL     1     -12.034  -2.746  -7.553  1.00  0.00    -0.493 OA
ATOM     20  C   UNL     1     -12.206  -4.135  -7.310  1.00  0.00    +0.278 C 
ENDBRANCH  10  19
BRANCH  12  21
ATOM     21  O   UNL     1     -13.550  -2.086  -9.581  1.00  0.00    -0.493 OA
ATOM     22  C   UNL     1     -14.287  -0.873  -9.636  1.00  0.00    +0.278 C 
ENDBRANCH  12  21
ENDBRANCH   8   9
ENDBRANCH   1   8
BRANCH   4  23
ATOM     23  N   UNL     1      -8.774   3.922 -15.949  1.00  0.00    -0.306 N 
ATOM     24  C   UNL     1      -9.487   4.665 -16.882  1.00  0.00    +0.324 C 
ATOM     25  O   UNL     1     -10.593   4.361 -17.305  1.00  0.00    -0.248 OA
ATOM     26  N   UNL     1      -8.765   5.786 -17.251  1.00  0.00    -0.289 N 
ATOM     27  H   UNL     1      -7.790   4.134 -15.854  1.00  0.00    +0.171 HD
ATOM     28  H   UNL     1      -7.955   6.036 -16.711  1.00  0.00    +0.173 HD
BRANCH  26  29
ATOM     29  C   UNL     1      -9.159   6.695 -18.216  1.00  0.00    +0.177 A 
ATOM     30  C   UNL     1      -9.322   6.358 -19.583  1.00  0.00    +0.095 A 
ATOM     31  N   UNL     1      -9.456   7.982 -18.016  1.00  0.00    -0.062 NA
ATOM     32  C   UNL     1      -9.723   7.524 -20.186  1.00  0.00    +0.135 A 
ATOM     33  O   UNL     1      -9.804   8.500 -19.247  1.00  0.00    -0.360 OA
ATOM     34  C   UNL     1     -10.067   7.910 -21.564  1.00  0.00    +0.091 C 
ENDBRANCH  26  29
ENDBRANCH   4  23
TORSDOF 6
ENDMDL
