MODEL 1
REMARK VINA RESULT:    -8.755      0.000      0.000
REMARK INTER + INTRA:         -10.577
REMARK INTER:                  -9.779
REMARK INTRA:                  -0.799
REMARK UNBOUND:                -0.799
REMARK SMILES CN(C)c1ccc(/C=C2\C(=O)Nc3ccccc32)c2ccccc12
REMARK SMILES IDX 4 1 5 2 6 3 7 4 19 5 20 6 21 7 22 8 23 9 24 10 2 11 1 12
REMARK SMILES IDX 3 13 8 14 9 15 10 16 18 17 11 18 12 19 17 20 13 21 16 22
REMARK SMILES IDX 14 23 15 24
REMARK H PARENT 12 25
ROOT
ATOM      1  C   UNL     1      -9.862   4.926 -16.662  1.00  0.00    +0.044 A 
ATOM      2  C   UNL     1      -8.815   4.484 -17.484  1.00  0.00    +0.027 A 
ATOM      3  C   UNL     1      -8.234   3.233 -17.294  1.00  0.00    +0.011 A 
ATOM      4  C   UNL     1      -8.695   2.382 -16.283  1.00  0.00    -0.017 A 
ATOM      5  C   UNL     1      -9.755   2.790 -15.432  1.00  0.00    -0.009 A 
ATOM      6  C   UNL     1     -10.263   1.970 -14.394  1.00  0.00    +0.009 A 
ATOM      7  C   UNL     1     -11.299   2.390 -13.560  1.00  0.00    +0.001 A 
ATOM      8  C   UNL     1     -11.858   3.645 -13.738  1.00  0.00    +0.001 A 
ATOM      9  C   UNL     1     -11.382   4.472 -14.755  1.00  0.00    +0.011 A 
ATOM     10  C   UNL     1     -10.339   4.073 -15.623  1.00  0.00    +0.006 A 
ENDROOT
BRANCH   1  11
ATOM     11  N   UNL     1     -10.483   6.189 -16.880  1.00  0.00    -0.377 N 
ATOM     12  C   UNL     1      -9.627   7.343 -16.610  1.00  0.00    +0.143 C 
ATOM     13  C   UNL     1     -11.135   6.213 -18.194  1.00  0.00    +0.143 C 
ENDBRANCH   1  11
BRANCH   4  14
ATOM     14  C   UNL     1      -8.016   1.087 -16.114  1.00  0.00    +0.023 C 
ATOM     15  C   UNL     1      -6.948   0.856 -15.336  1.00  0.00    +0.050 C 
ATOM     16  C   UNL     1      -6.203   1.843 -14.469  1.00  0.00    +0.256 C 
ATOM     17  C   UNL     1      -6.269  -0.437 -15.193  1.00  0.00    +0.011 A 
ATOM     18  O   UNL     1      -6.430   3.021 -14.283  1.00  0.00    -0.269 OA
ATOM     19  N   UNL     1      -5.175   1.105 -13.897  1.00  0.00    -0.321 N 
ATOM     20  C   UNL     1      -6.491  -1.692 -15.731  1.00  0.00    +0.011 A 
ATOM     21  C   UNL     1      -5.206  -0.222 -14.312  1.00  0.00    +0.049 A 
ATOM     22  C   UNL     1      -5.620  -2.726 -15.366  1.00  0.00    +0.001 A 
ATOM     23  C   UNL     1      -4.336  -1.226 -13.939  1.00  0.00    +0.027 A 
ATOM     24  C   UNL     1      -4.553  -2.495 -14.479  1.00  0.00    +0.002 A 
ATOM     25  H   UNL     1      -4.507   1.513 -13.263  1.00  0.00    +0.170 HD
ENDBRANCH   4  14
TORSDOF 2
ENDMDL
MODEL 2
REMARK VINA RESULT:    -8.649      3.384      6.009
REMARK INTER + INTRA:         -10.458
REMARK INTER:                 -11.727
REMARK INTRA:                   1.268
REMARK UNBOUND:                -0.799
REMARK SMILES CN(C)c1ccc(/C=C2\C(=O)Nc3ccccc32)c2ccccc12
REMARK SMILES IDX 4 1 5 2 6 3 7 4 19 5 20 6 21 7 22 8 23 9 24 10 2 11 1 12
REMARK SMILES IDX 3 13 8 14 9 15 10 16 18 17 11 18 12 19 17 20 13 21 16 22
REMARK SMILES IDX 14 23 15 24
REMARK H PARENT 12 25
ROOT
ATOM      1  C   UNL     1      -9.905   5.522 -17.213  1.00  0.00    +0.044 A 
ATOM      2  C   UNL     1     -10.944   5.787 -16.310  1.00  0.00    +0.027 A 
ATOM      3  C   UNL     1     -11.197   4.936 -15.238  1.00  0.00    +0.011 A 
ATOM      4  C   UNL     1     -10.405   3.801 -15.032  1.00  0.00    -0.017 A 
ATOM      5  C   UNL     1      -9.341   3.498 -15.921  1.00  0.00    -0.009 A 
ATOM      6  C   UNL     1      -8.507   2.364 -15.760  1.00  0.00    +0.009 A 
ATOM      7  C   UNL     1      -7.471   2.076 -16.648  1.00  0.00    +0.001 A 
ATOM      8  C   UNL     1      -7.239   2.913 -17.727  1.00  0.00    +0.001 A 
ATOM      9  C   UNL     1      -8.041   4.040 -17.908  1.00  0.00    +0.011 A 
ATOM     10  C   UNL     1      -9.094   4.365 -17.021  1.00  0.00    +0.006 A 
ENDROOT
BRANCH   1  11
ATOM     11  N   UNL     1      -9.621   6.413 -18.288  1.00  0.00    -0.377 N 
ATOM     12  C   UNL     1     -10.508   6.275 -19.443  1.00  0.00    +0.143 C 
ATOM     13  C   UNL     1      -9.489   7.785 -17.787  1.00  0.00    +0.143 C 
ENDBRANCH   1  11
BRANCH   4  14
ATOM     14  C   UNL     1     -10.746   2.924 -13.898  1.00  0.00    +0.023 C 
ATOM     15  C   UNL     1     -11.959   2.796 -13.342  1.00  0.00    +0.050 C 
ATOM     16  C   UNL     1     -13.236   3.502 -13.731  1.00  0.00    +0.256 C 
ATOM     17  C   UNL     1     -12.279   1.932 -12.200  1.00  0.00    +0.011 A 
ATOM     18  O   UNL     1     -13.427   4.298 -14.627  1.00  0.00    -0.269 OA
ATOM     19  N   UNL     1     -14.186   3.036 -12.832  1.00  0.00    -0.321 N 
ATOM     20  C   UNL     1     -11.532   1.059 -11.429  1.00  0.00    +0.011 A 
ATOM     21  C   UNL     1     -13.639   2.121 -11.938  1.00  0.00    +0.049 A 
ATOM     22  C   UNL     1     -12.179   0.381 -10.389  1.00  0.00    +0.001 A 
ATOM     23  C   UNL     1     -14.297   1.465 -10.919  1.00  0.00    +0.027 A 
ATOM     24  C   UNL     1     -13.550   0.583 -10.136  1.00  0.00    +0.002 A 
ATOM     25  H   UNL     1     -15.146   3.342 -12.854  1.00  0.00    +0.170 HD
ENDBRANCH   4  14
TORSDOF 2
ENDMDL
MODEL 3
REMARK VINA RESULT:    -8.399      1.556      1.992
REMARK INTER + INTRA:         -10.180
REMARK INTER:                  -9.388
REMARK INTRA:                  -0.792
REMARK UNBOUND:                -0.799
REMARK SMILES CN(C)c1ccc(/C=C2\C(=O)Nc3ccccc32)c2ccccc12
REMARK SMILES IDX 4 1 5 2 6 3 7 4 19 5 20 6 21 7 22 8 23 9 24 10 2 11 1 12
REMARK SMILES IDX 3 13 8 14 9 15 10 16 18 17 11 18 12 19 17 20 13 21 16 22
REMARK SMILES IDX 14 23 15 24
REMARK H PARENT 12 25
ROOT
ATOM      1  C   UNL     1      -9.279   5.445 -17.336  1.00  0.00    +0.044 A 
ATOM      2  C   UNL     1      -7.977   5.080 -17.706  1.00  0.00    +0.027 A 
ATOM      3  C   UNL     1      -7.268   4.122 -16.986  1.00  0.00    +0.011 A 
ATOM      4  C   UNL     1      -7.850   3.491 -15.882  1.00  0.00    -0.017 A 
ATOM      5  C   UNL     1      -9.168   3.828 -15.476  1.00  0.00    -0.009 A 
ATOM      6  C   UNL     1      -9.807   3.220 -14.367  1.00  0.00    +0.009 A 
ATOM      7  C   UNL     1     -11.099   3.570 -13.975  1.00  0.00    +0.001 A 
ATOM      8  C   UNL     1     -11.791   4.542 -14.680  1.00  0.00    +0.001 A 
ATOM      9  C   UNL     1     -11.188   5.153 -15.780  1.00  0.00    +0.011 A 
ATOM     10  C   UNL     1      -9.884   4.815 -16.208  1.00  0.00    +0.006 A 
ENDROOT
BRANCH   1  11
ATOM     11  N   UNL     1     -10.019   6.396 -18.094  1.00  0.00    -0.377 N 
ATOM     12  C   UNL     1      -9.620   7.788 -17.882  1.00  0.00    +0.143 C 
ATOM     13  C   UNL     1     -10.073   5.991 -19.503  1.00  0.00    +0.143 C 
ENDBRANCH   1  11
BRANCH   4  14
ATOM     14  C   UNL     1      -7.035   2.511 -15.144  1.00  0.00    +0.023 C 
ATOM     15  C   UNL     1      -7.001   1.189 -15.370  1.00  0.00    +0.050 C 
ATOM     16  C   UNL     1      -7.769   0.407 -16.408  1.00  0.00    +0.256 C 
ATOM     17  C   UNL     1      -6.198   0.223 -14.612  1.00  0.00    +0.011 A 
ATOM     18  O   UNL     1      -8.543   0.810 -17.252  1.00  0.00    -0.269 OA
ATOM     19  N   UNL     1      -7.392  -0.915 -16.205  1.00  0.00    -0.321 N 
ATOM     20  C   UNL     1      -5.308   0.342 -13.559  1.00  0.00    +0.011 A 
ATOM     21  C   UNL     1      -6.478  -1.031 -15.163  1.00  0.00    +0.049 A 
ATOM     22  C   UNL     1      -4.708  -0.824 -13.070  1.00  0.00    +0.001 A 
ATOM     23  C   UNL     1      -5.898  -2.193 -14.697  1.00  0.00    +0.027 A 
ATOM     24  C   UNL     1      -5.000  -2.080 -13.634  1.00  0.00    +0.002 A 
ATOM     25  H   UNL     1      -7.755  -1.671 -16.763  1.00  0.00    +0.170 HD
ENDBRANCH   4  14
TORSDOF 2
ENDMDL
MODEL 4
REMARK VINA RESULT:    -8.104      1.892      3.387
REMARK INTER + INTRA:          -9.850
REMARK INTER:                  -9.703
REMARK INTRA:                  -0.147
REMARK UNBOUND:                -0.799
REMARK SMILES CN(C)c1ccc(/C=C2\C(=O)Nc3ccccc32)c2ccccc12
REMARK SMILES IDX 4 1 5 2 6 3 7 4 19 5 20 6 21 7 22 8 23 9 24 10 2 11 1 12
REMARK SMILES IDX 3 13 8 14 9 15 10 16 18 17 11 18 12 19 17 20 13 21 16 22
REMARK SMILES IDX 14 23 15 24
REMARK H PARENT 12 25
ROOT
ATOM      1  C   UNL     1     -11.514   2.439 -13.919  1.00  0.00    +0.044 A 
ATOM      2  C   UNL     1     -11.098   1.132 -13.625  1.00  0.00    +0.027 A 
ATOM      3  C   UNL     1     -10.003   0.566 -14.271  1.00  0.00    +0.011 A 
ATOM      4  C   UNL     1      -9.284   1.298 -15.222  1.00  0.00    -0.017 A 
ATOM      5  C   UNL     1      -9.670   2.625 -15.546  1.00  0.00    -0.009 A 
ATOM      6  C   UNL     1      -8.977   3.413 -16.499  1.00  0.00    +0.009 A 
ATOM      7  C   UNL     1      -9.375   4.712 -16.813  1.00  0.00    +0.001 A 
ATOM      8  C   UNL     1     -10.480   5.262 -16.185  1.00  0.00    +0.001 A 
ATOM      9  C   UNL     1     -11.178   4.512 -15.238  1.00  0.00    +0.011 A 
ATOM     10  C   UNL     1     -10.795   3.195 -14.891  1.00  0.00    +0.006 A 
ENDROOT
BRANCH   1  11
ATOM     11  N   UNL     1     -12.610   3.033 -13.230  1.00  0.00    -0.377 N 
ATOM     12  C   UNL     1     -13.751   3.372 -14.080  1.00  0.00    +0.143 C 
ATOM     13  C   UNL     1     -12.953   2.241 -12.045  1.00  0.00    +0.143 C 
ENDBRANCH   1  11
BRANCH   4  14
ATOM     14  C   UNL     1      -8.156   0.629 -15.894  1.00  0.00    +0.023 C 
ATOM     15  C   UNL     1      -6.857   0.826 -15.630  1.00  0.00    +0.050 C 
ATOM     16  C   UNL     1      -6.250   1.756 -14.607  1.00  0.00    +0.256 C 
ATOM     17  C   UNL     1      -5.744   0.166 -16.322  1.00  0.00    +0.011 A 
ATOM     18  O   UNL     1      -6.806   2.486 -13.812  1.00  0.00    -0.269 OA
ATOM     19  N   UNL     1      -4.878   1.599 -14.755  1.00  0.00    -0.321 N 
ATOM     20  C   UNL     1      -5.677  -0.774 -17.335  1.00  0.00    +0.011 A 
ATOM     21  C   UNL     1      -4.574   0.675 -15.750  1.00  0.00    +0.049 A 
ATOM     22  C   UNL     1      -4.410  -1.190 -17.763  1.00  0.00    +0.001 A 
ATOM     23  C   UNL     1      -3.316   0.279 -16.155  1.00  0.00    +0.027 A 
ATOM     24  C   UNL     1      -3.241  -0.668 -17.178  1.00  0.00    +0.002 A 
ATOM     25  H   UNL     1      -4.213   2.106 -14.194  1.00  0.00    +0.170 HD
ENDBRANCH   4  14
TORSDOF 2
ENDMDL
MODEL 5
REMARK VINA RESULT:    -7.970      3.291      5.523
REMARK INTER + INTRA:          -9.701
REMARK INTER:                  -9.000
REMARK INTRA:                  -0.700
REMARK UNBOUND:                -0.799
REMARK SMILES CN(C)c1ccc(/C=C2\C(=O)Nc3ccccc32)c2ccccc12
REMARK SMILES IDX 4 1 5 2 6 3 7 4 19 5 20 6 21 7 22 8 23 9 24 10 2 11 1 12
REMARK SMILES IDX 3 13 8 14 9 15 10 16 18 17 11 18 12 19 17 20 13 21 16 22
REMARK SMILES IDX 14 23 15 24
REMARK H PARENT 12 25
ROOT
ATOM      1  C   UNL     1     -12.068   0.436 -11.008  1.00  0.00    +0.044 A 
ATOM      2  C   UNL     1     -10.991  -0.435 -11.228  1.00  0.00    +0.027 A 
ATOM      3  C   UNL     1     -10.227  -0.352 -12.389  1.00  0.00    +0.011 A 
ATOM      4  C   UNL     1     -10.510   0.617 -13.357  1.00  0.00    -0.017 A 
ATOM      5  C   UNL     1     -11.590   1.520 -13.172  1.00  0.00    -0.009 A 
ATOM      6  C   UNL     1     -11.921   2.522 -14.118  1.00  0.00    +0.009 A 
ATOM      7  C   UNL     1     -12.991   3.396 -13.926  1.00  0.00    +0.001 A 
ATOM      8  C   UNL     1     -13.764   3.293 -12.780  1.00  0.00    +0.001 A 
ATOM      9  C   UNL     1     -13.457   2.320 -11.829  1.00  0.00    +0.011 A 
ATOM     10  C   UNL     1     -12.374   1.424 -11.990  1.00  0.00    +0.006 A 
ENDROOT
BRANCH   1  11
ATOM     11  N   UNL     1     -12.826   0.377  -9.805  1.00  0.00    -0.377 N 
ATOM     12  C   UNL     1     -13.876  -0.641  -9.796  1.00  0.00    +0.143 C 
ATOM     13  C   UNL     1     -11.932   0.334  -8.643  1.00  0.00    +0.143 C 
ENDBRANCH   1  11
BRANCH   4  14
ATOM     14  C   UNL     1      -9.685   0.630 -14.577  1.00  0.00    +0.023 C 
ATOM     15  C   UNL     1      -8.653   1.453 -14.818  1.00  0.00    +0.050 C 
ATOM     16  C   UNL     1      -8.103   2.535 -13.921  1.00  0.00    +0.256 C 
ATOM     17  C   UNL     1      -7.852   1.466 -16.047  1.00  0.00    +0.011 A 
ATOM     18  O   UNL     1      -8.461   2.861 -12.807  1.00  0.00    -0.269 OA
ATOM     19  N   UNL     1      -7.061   3.100 -14.646  1.00  0.00    -0.321 N 
ATOM     20  C   UNL     1      -7.881   0.717 -17.210  1.00  0.00    +0.011 A 
ATOM     21  C   UNL     1      -6.907   2.483 -15.884  1.00  0.00    +0.049 A 
ATOM     22  C   UNL     1      -6.942   1.012 -18.205  1.00  0.00    +0.001 A 
ATOM     23  C   UNL     1      -5.973   2.792 -16.850  1.00  0.00    +0.027 A 
ATOM     24  C   UNL     1      -5.997   2.040 -18.027  1.00  0.00    +0.002 A 
ATOM     25  H   UNL     1      -6.505   3.859 -14.288  1.00  0.00    +0.170 HD
ENDBRANCH   4  14
TORSDOF 2
ENDMDL
MODEL 6
REMARK VINA RESULT:    -7.675      2.289      2.682
REMARK INTER + INTRA:          -9.371
REMARK INTER:                  -8.700
REMARK INTRA:                  -0.672
REMARK UNBOUND:                -0.799
REMARK SMILES CN(C)c1ccc(/C=C2\C(=O)Nc3ccccc32)c2ccccc12
REMARK SMILES IDX 4 1 5 2 6 3 7 4 19 5 20 6 21 7 22 8 23 9 24 10 2 11 1 12
REMARK SMILES IDX 3 13 8 14 9 15 10 16 18 17 11 18 12 19 17 20 13 21 16 22
REMARK SMILES IDX 14 23 15 24
REMARK H PARENT 12 25
ROOT
ATOM      1  C   UNL     1      -9.074   5.120 -16.965  1.00  0.00    +0.044 A 
ATOM      2  C   UNL     1      -7.948   5.234 -17.792  1.00  0.00    +0.027 A 
ATOM      3  C   UNL     1      -6.852   4.390 -17.631  1.00  0.00    +0.011 A 
ATOM      4  C   UNL     1      -6.859   3.398 -16.645  1.00  0.00    -0.017 A 
ATOM      5  C   UNL     1      -7.981   3.248 -15.788  1.00  0.00    -0.009 A 
ATOM      6  C   UNL     1      -8.044   2.260 -14.774  1.00  0.00    +0.009 A 
ATOM      7  C   UNL     1      -9.150   2.131 -13.934  1.00  0.00    +0.001 A 
ATOM      8  C   UNL     1     -10.228   2.989 -14.083  1.00  0.00    +0.001 A 
ATOM      9  C   UNL     1     -10.196   3.967 -15.077  1.00  0.00    +0.011 A 
ATOM     10  C   UNL     1      -9.094   4.119 -15.949  1.00  0.00    +0.006 A 
ENDROOT
BRANCH   1  11
ATOM     11  N   UNL     1     -10.211   5.957 -17.153  1.00  0.00    -0.377 N 
ATOM     12  C   UNL     1     -10.011   7.353 -16.767  1.00  0.00    +0.143 C 
ATOM     13  C   UNL     1     -10.756   5.775 -18.503  1.00  0.00    +0.143 C 
ENDBRANCH   1  11
BRANCH   4  14
ATOM     14  C   UNL     1      -5.656   2.561 -16.505  1.00  0.00    +0.023 C 
ATOM     15  C   UNL     1      -5.521   1.301 -16.943  1.00  0.00    +0.050 C 
ATOM     16  C   UNL     1      -6.543   0.457 -17.665  1.00  0.00    +0.256 C 
ATOM     17  C   UNL     1      -4.321   0.472 -16.778  1.00  0.00    +0.011 A 
ATOM     18  O   UNL     1      -7.669   0.750 -18.013  1.00  0.00    -0.269 OA
ATOM     19  N   UNL     1      -5.914  -0.764 -17.869  1.00  0.00    -0.321 N 
ATOM     20  C   UNL     1      -3.081   0.696 -16.206  1.00  0.00    +0.011 A 
ATOM     21  C   UNL     1      -4.620  -0.764 -17.357  1.00  0.00    +0.049 A 
ATOM     22  C   UNL     1      -2.150  -0.349 -16.227  1.00  0.00    +0.001 A 
ATOM     23  C   UNL     1      -3.718  -1.807 -17.389  1.00  0.00    +0.027 A 
ATOM     24  C   UNL     1      -2.465  -1.589 -16.812  1.00  0.00    +0.002 A 
ATOM     25  H   UNL     1      -6.367  -1.534 -18.336  1.00  0.00    +0.170 HD
ENDBRANCH   4  14
TORSDOF 2
ENDMDL
MODEL 7
REMARK VINA RESULT:    -7.583      6.492      9.862
REMARK INTER + INTRA:          -9.268
REMARK INTER:                  -8.644
REMARK INTRA:                  -0.624
REMARK UNBOUND:                -0.799
REMARK SMILES CN(C)c1ccc(/C=C2\C(=O)Nc3ccccc32)c2ccccc12
REMARK SMILES IDX 4 1 5 2 6 3 7 4 19 5 20 6 21 7 22 8 23 9 24 10 2 11 1 12
REMARK SMILES IDX 3 13 8 14 9 15 10 16 18 17 11 18 12 19 17 20 13 21 16 22
REMARK SMILES IDX 14 23 15 24
REMARK H PARENT 12 25
ROOT
ATOM      1  C   UNL     1     -13.462  -1.955  -7.295  1.00  0.00    +0.044 A 
ATOM      2  C   UNL     1     -13.167  -0.589  -7.179  1.00  0.00    +0.027 A 
ATOM      3  C   UNL     1     -12.621   0.120  -8.245  1.00  0.00    +0.011 A 
ATOM      4  C   UNL     1     -12.369  -0.517  -9.465  1.00  0.00    -0.017 A 
ATOM      5  C   UNL     1     -12.656  -1.898  -9.626  1.00  0.00    -0.009 A 
ATOM      6  C   UNL     1     -12.423  -2.593 -10.838  1.00  0.00    +0.009 A 
ATOM      7  C   UNL     1     -12.703  -3.952 -10.977  1.00  0.00    +0.001 A 
ATOM      8  C   UNL     1     -13.223  -4.658  -9.905  1.00  0.00    +0.001 A 
ATOM      9  C   UNL     1     -13.469  -3.998  -8.700  1.00  0.00    +0.011 A 
ATOM     10  C   UNL     1     -13.204  -2.620  -8.530  1.00  0.00    +0.006 A 
ENDROOT
BRANCH   1  11
ATOM     11  N   UNL     1     -14.056  -2.672  -6.218  1.00  0.00    -0.377 N 
ATOM     12  C   UNL     1     -13.176  -2.884  -5.068  1.00  0.00    +0.143 C 
ATOM     13  C   UNL     1     -15.361  -2.093  -5.881  1.00  0.00    +0.143 C 
ENDBRANCH   1  11
BRANCH   4  14
ATOM     14  C   UNL     1     -11.760   0.282 -10.542  1.00  0.00    +0.023 C 
ATOM     15  C   UNL     1     -12.395   1.181 -11.308  1.00  0.00    +0.050 C 
ATOM     16  C   UNL     1     -13.849   1.583 -11.252  1.00  0.00    +0.256 C 
ATOM     17  C   UNL     1     -11.778   1.955 -12.391  1.00  0.00    +0.011 A 
ATOM     18  O   UNL     1     -14.720   1.197 -10.499  1.00  0.00    -0.269 OA
ATOM     19  N   UNL     1     -13.995   2.524 -12.263  1.00  0.00    -0.321 N 
ATOM     20  C   UNL     1     -10.494   2.019 -12.904  1.00  0.00    +0.011 A 
ATOM     21  C   UNL     1     -12.795   2.747 -12.931  1.00  0.00    +0.049 A 
ATOM     22  C   UNL     1     -10.256   2.892 -13.972  1.00  0.00    +0.001 A 
ATOM     23  C   UNL     1     -12.583   3.615 -13.982  1.00  0.00    +0.027 A 
ATOM     24  C   UNL     1     -11.290   3.683 -14.506  1.00  0.00    +0.002 A 
ATOM     25  H   UNL     1     -14.876   2.970 -12.461  1.00  0.00    +0.170 HD
ENDBRANCH   4  14
TORSDOF 2
ENDMDL
MODEL 8
REMARK VINA RESULT:    -7.582      6.558      9.831
REMARK INTER + INTRA:          -9.267
REMARK INTER:                  -8.551
REMARK INTRA:                  -0.715
REMARK UNBOUND:                -0.799
REMARK SMILES CN(C)c1ccc(/C=C2\C(=O)Nc3ccccc32)c2ccccc12
REMARK SMILES IDX 4 1 5 2 6 3 7 4 19 5 20 6 21 7 22 8 23 9 24 10 2 11 1 12
REMARK SMILES IDX 3 13 8 14 9 15 10 16 18 17 11 18 12 19 17 20 13 21 16 22
REMARK SMILES IDX 14 23 15 24
REMARK H PARENT 12 25
ROOT
ATOM      1  C   UNL     1     -14.013  -2.131  -7.643  1.00  0.00    +0.044 A 
ATOM      2  C   UNL     1     -14.109  -2.417  -9.012  1.00  0.00    +0.027 A 
ATOM      3  C   UNL     1     -13.394  -1.679  -9.951  1.00  0.00    +0.011 A 
ATOM      4  C   UNL     1     -12.550  -0.641  -9.543  1.00  0.00    -0.017 A 
ATOM      5  C   UNL     1     -12.421  -0.321  -8.166  1.00  0.00    -0.009 A 
ATOM      6  C   UNL     1     -11.580   0.719  -7.696  1.00  0.00    +0.009 A 
ATOM      7  C   UNL     1     -11.472   1.027  -6.340  1.00  0.00    +0.001 A 
ATOM      8  C   UNL     1     -12.205   0.305  -5.412  1.00  0.00    +0.001 A 
ATOM      9  C   UNL     1     -13.037  -0.728  -5.845  1.00  0.00    +0.011 A 
ATOM     10  C   UNL     1     -13.162  -1.071  -7.212  1.00  0.00    +0.006 A 
ENDROOT
BRANCH   1  11
ATOM     11  N   UNL     1     -14.714  -2.910  -6.678  1.00  0.00    -0.377 N 
ATOM     12  C   UNL     1     -16.171  -2.819  -6.765  1.00  0.00    +0.143 C 
ATOM     13  C   UNL     1     -14.194  -4.281  -6.660  1.00  0.00    +0.143 C 
ENDBRANCH   1  11
BRANCH   4  14
ATOM     14  C   UNL     1     -11.847   0.123 -10.588  1.00  0.00    +0.023 C 
ATOM     15  C   UNL     1     -12.373   1.112 -11.325  1.00  0.00    +0.050 C 
ATOM     16  C   UNL     1     -13.775   1.668 -11.264  1.00  0.00    +0.256 C 
ATOM     17  C   UNL     1     -11.666   1.851 -12.378  1.00  0.00    +0.011 A 
ATOM     18  O   UNL     1     -14.691   1.354 -10.530  1.00  0.00    -0.269 OA
ATOM     19  N   UNL     1     -13.809   2.653 -12.242  1.00  0.00    -0.321 N 
ATOM     20  C   UNL     1     -10.378   1.791 -12.881  1.00  0.00    +0.011 A 
ATOM     21  C   UNL     1     -12.586   2.767 -12.895  1.00  0.00    +0.049 A 
ATOM     22  C   UNL     1     -10.036   2.669 -13.916  1.00  0.00    +0.001 A 
ATOM     23  C   UNL     1     -12.271   3.641 -13.914  1.00  0.00    +0.027 A 
ATOM     24  C   UNL     1     -10.973   3.585 -14.428  1.00  0.00    +0.002 A 
ATOM     25  H   UNL     1     -14.634   3.200 -12.429  1.00  0.00    +0.170 HD
ENDBRANCH   4  14
TORSDOF 2
ENDMDL
MODEL 9
REMARK VINA RESULT:    -7.568      2.962      5.904
REMARK INTER + INTRA:          -9.251
REMARK INTER:                 -10.740
REMARK INTRA:                   1.489
REMARK UNBOUND:                -0.799
REMARK SMILES CN(C)c1ccc(/C=C2\C(=O)Nc3ccccc32)c2ccccc12
REMARK SMILES IDX 4 1 5 2 6 3 7 4 19 5 20 6 21 7 22 8 23 9 24 10 2 11 1 12
REMARK SMILES IDX 3 13 8 14 9 15 10 16 18 17 11 18 12 19 17 20 13 21 16 22
REMARK SMILES IDX 14 23 15 24
REMARK H PARENT 12 25
ROOT
ATOM      1  C   UNL     1      -8.188   2.910 -16.606  1.00  0.00    +0.044 A 
ATOM      2  C   UNL     1      -8.345   1.743 -15.845  1.00  0.00    +0.027 A 
ATOM      3  C   UNL     1      -9.406   1.605 -14.954  1.00  0.00    +0.011 A 
ATOM      4  C   UNL     1     -10.349   2.628 -14.810  1.00  0.00    -0.017 A 
ATOM      5  C   UNL     1     -10.228   3.825 -15.563  1.00  0.00    -0.009 A 
ATOM      6  C   UNL     1     -11.154   4.893 -15.459  1.00  0.00    +0.009 A 
ATOM      7  C   UNL     1     -11.016   6.066 -16.199  1.00  0.00    +0.001 A 
ATOM      8  C   UNL     1      -9.945   6.208 -17.067  1.00  0.00    +0.001 A 
ATOM      9  C   UNL     1      -9.021   5.171 -17.194  1.00  0.00    +0.011 A 
ATOM     10  C   UNL     1      -9.137   3.966 -16.464  1.00  0.00    +0.006 A 
ENDROOT
BRANCH   1  11
ATOM     11  N   UNL     1      -7.126   3.038 -17.546  1.00  0.00    -0.377 N 
ATOM     12  C   UNL     1      -5.888   3.591 -16.995  1.00  0.00    +0.143 C 
ATOM     13  C   UNL     1      -6.951   1.783 -18.286  1.00  0.00    +0.143 C 
ENDBRANCH   1  11
BRANCH   4  14
ATOM     14  C   UNL     1     -11.427   2.433 -13.826  1.00  0.00    +0.023 C 
ATOM     15  C   UNL     1     -11.393   1.595 -12.779  1.00  0.00    +0.050 C 
ATOM     16  C   UNL     1     -10.270   0.674 -12.366  1.00  0.00    +0.256 C 
ATOM     17  C   UNL     1     -12.484   1.398 -11.819  1.00  0.00    +0.011 A 
ATOM     18  O   UNL     1      -9.178   0.524 -12.875  1.00  0.00    -0.269 OA
ATOM     19  N   UNL     1     -10.749   0.016 -11.241  1.00  0.00    -0.321 N 
ATOM     20  C   UNL     1     -13.744   1.954 -11.682  1.00  0.00    +0.011 A 
ATOM     21  C   UNL     1     -12.036   0.431 -10.914  1.00  0.00    +0.049 A 
ATOM     22  C   UNL     1     -14.543   1.517 -10.619  1.00  0.00    +0.001 A 
ATOM     23  C   UNL     1     -12.806  -0.015  -9.860  1.00  0.00    +0.027 A 
ATOM     24  C   UNL     1     -14.079   0.541  -9.716  1.00  0.00    +0.002 A 
ATOM     25  H   UNL     1     -10.203  -0.671 -10.746  1.00  0.00    +0.170 HD
ENDBRANCH   4  14
TORSDOF 2
ENDMDL
MODEL 10
REMARK VINA RESULT:    -6.966      5.286      7.223
REMARK INTER + INTRA:          -8.579
REMARK INTER:                  -8.658
REMARK INTRA:                   0.078
REMARK UNBOUND:                -0.799
REMARK SMILES CN(C)c1ccc(/C=C2\C(=O)Nc3ccccc32)c2ccccc12
REMARK SMILES IDX 4 1 5 2 6 3 7 4 19 5 20 6 21 7 22 8 23 9 24 10 2 11 1 12
REMARK SMILES IDX 3 13 8 14 9 15 10 16 18 17 11 18 12 19 17 20 13 21 16 22
REMARK SMILES IDX 14 23 15 24
REMARK H PARENT 12 25
ROOT
ATOM      1  C   UNL     1      -9.531   1.123 -13.982  1.00  0.00    +0.044 A 
ATOM      2  C   UNL     1      -9.027   0.028 -13.266  1.00  0.00    +0.027 A 
ATOM      3  C   UNL     1      -9.713  -0.491 -12.171  1.00  0.00    +0.011 A 
ATOM      4  C   UNL     1     -10.932   0.065 -11.770  1.00  0.00    -0.017 A 
ATOM      5  C   UNL     1     -11.479   1.173 -12.469  1.00  0.00    -0.009 A 
ATOM      6  C   UNL     1     -12.710   1.775 -12.108  1.00  0.00    +0.009 A 
ATOM      7  C   UNL     1     -13.230   2.869 -12.800  1.00  0.00    +0.001 A 
ATOM      8  C   UNL     1     -12.531   3.396 -13.874  1.00  0.00    +0.001 A 
ATOM      9  C   UNL     1     -11.319   2.820 -14.256  1.00  0.00    +0.011 A 
ATOM     10  C   UNL     1     -10.770   1.706 -13.580  1.00  0.00    +0.006 A 
ENDROOT
BRANCH   1  11
ATOM     11  N   UNL     1      -8.850   1.630 -15.125  1.00  0.00    -0.377 N 
ATOM     12  C   UNL     1      -7.727   2.516 -14.822  1.00  0.00    +0.143 C 
ATOM     13  C   UNL     1      -8.526   0.536 -16.048  1.00  0.00    +0.143 C 
ENDBRANCH   1  11
BRANCH   4  14
ATOM     14  C   UNL     1     -11.590  -0.508 -10.583  1.00  0.00    +0.023 C 
ATOM     15  C   UNL     1     -11.899  -1.801 -10.405  1.00  0.00    +0.050 C 
ATOM     16  C   UNL     1     -11.654  -2.951 -11.352  1.00  0.00    +0.256 C 
ATOM     17  C   UNL     1     -12.573  -2.354  -9.225  1.00  0.00    +0.011 A 
ATOM     18  O   UNL     1     -11.115  -2.944 -12.440  1.00  0.00    -0.269 OA
ATOM     19  N   UNL     1     -12.179  -4.061 -10.704  1.00  0.00    -0.321 N 
ATOM     20  C   UNL     1     -13.037  -1.798  -8.046  1.00  0.00    +0.011 A 
ATOM     21  C   UNL     1     -12.715  -3.724  -9.465  1.00  0.00    +0.049 A 
ATOM     22  C   UNL     1     -13.648  -2.646  -7.115  1.00  0.00    +0.001 A 
ATOM     23  C   UNL     1     -13.314  -4.578  -8.562  1.00  0.00    +0.027 A 
ATOM     24  C   UNL     1     -13.785  -4.023  -7.371  1.00  0.00    +0.002 A 
ATOM     25  H   UNL     1     -12.156  -4.983 -11.109  1.00  0.00    +0.170 HD
ENDBRANCH   4  14
TORSDOF 2
ENDMDL
