MODEL 1
REMARK VINA RESULT:    -9.727      0.000      0.000
REMARK INTER + INTRA:         -14.154
REMARK INTER:                 -13.707
REMARK INTRA:                  -0.448
REMARK UNBOUND:                -0.448
REMARK SMILES CCN(CC)CCNC(=O)c1c(C)[nH]c(/C=C2\C(=O)Nc3ccc(F)cc32)c1C
REMARK SMILES IDX 7 1 6 2 3 3 2 4 1 5 4 6 5 7 8 8 9 9 10 10 11 12 12 13 28 14
REMARK SMILES IDX 14 15 15 16 13 17 29 18 16 20 17 21 18 22 27 23 19 24 20 25
REMARK SMILES IDX 26 26 21 27 24 28 22 29 23 30 25 32
REMARK H PARENT 8 11 14 19 20 31
ROOT
ATOM      1  C   UNL     1     -38.335 157.612   3.611  1.00  0.00    +0.131 C 
ENDROOT
BRANCH   1   2
ATOM      2  C   UNL     1     -36.879 157.110   3.556  1.00  0.00    +0.105 C 
BRANCH   2   3
ATOM      3  N   UNL     1     -35.950 157.776   4.494  1.00  0.00    -0.302 NA
BRANCH   3   4
ATOM      4  C   UNL     1     -34.926 156.815   4.942  1.00  0.00    +0.081 C 
ATOM      5  C   UNL     1     -33.500 157.213   4.577  1.00  0.00    +0.021 C 
ENDBRANCH   3   4
BRANCH   3   6
ATOM      6  C   UNL     1     -36.618 158.495   5.589  1.00  0.00    +0.081 C 
ATOM      7  C   UNL     1     -36.230 158.087   7.007  1.00  0.00    +0.021 C 
ENDBRANCH   3   6
ENDBRANCH   2   3
ENDBRANCH   1   2
BRANCH   1   8
ATOM      8  N   UNL     1     -38.733 158.286   2.389  1.00  0.00    -0.351 N 
ATOM      9  C   UNL     1     -40.054 158.396   2.014  1.00  0.00    +0.253 C 
ATOM     10  O   UNL     1     -40.972 157.897   2.655  1.00  0.00    -0.269 OA
ATOM     11  H   UNL     1     -38.071 158.898   1.936  1.00  0.00    +0.163 HD
BRANCH   9  12
ATOM     12  C   UNL     1     -40.281 159.222   0.822  1.00  0.00    +0.063 A 
ATOM     13  C   UNL     1     -41.327 160.108   0.592  1.00  0.00    +0.025 A 
ATOM     14  C   UNL     1     -39.422 159.298  -0.334  1.00  0.00    -0.013 A 
ATOM     15  N   UNL     1     -41.141 160.657  -0.654  1.00  0.00    -0.358 N 
ATOM     16  C   UNL     1     -39.984 160.203  -1.230  1.00  0.00    +0.043 A 
ATOM     17  C   UNL     1     -42.478 160.539   1.429  1.00  0.00    +0.065 C 
ATOM     18  C   UNL     1     -38.154 158.528  -0.504  1.00  0.00    +0.047 C 
ATOM     19  H   UNL     1     -41.773 161.336  -1.070  1.00  0.00    +0.166 HD
BRANCH  16  20
ATOM     20  C   UNL     1     -39.536 160.658  -2.504  1.00  0.00    +0.041 C 
ATOM     21  C   UNL     1     -39.128 161.880  -2.885  1.00  0.00    +0.051 C 
ATOM     22  C   UNL     1     -39.002 163.173  -2.114  1.00  0.00    +0.256 C 
ATOM     23  C   UNL     1     -38.695 162.186  -4.265  1.00  0.00    +0.014 A 
ATOM     24  O   UNL     1     -39.244 163.380  -0.939  1.00  0.00    -0.269 OA
ATOM     25  N   UNL     1     -38.537 164.105  -3.025  1.00  0.00    -0.321 N 
ATOM     26  C   UNL     1     -38.585 161.429  -5.418  1.00  0.00    +0.050 A 
ATOM     27  C   UNL     1     -38.354 163.543  -4.281  1.00  0.00    +0.049 A 
ATOM     28  C   UNL     1     -38.129 162.068  -6.572  1.00  0.00    +0.123 A 
ATOM     29  C   UNL     1     -37.900 164.189  -5.416  1.00  0.00    +0.030 A 
ATOM     30  C   UNL     1     -37.788 163.429  -6.581  1.00  0.00    +0.041 A 
ATOM     31  H   UNL     1     -38.358 165.067  -2.776  1.00  0.00    +0.170 HD
ATOM     32  F   UNL     1     -38.012 161.364  -7.704  1.00  0.00    -0.207 F 
ENDBRANCH  16  20
ENDBRANCH   9  12
ENDBRANCH   1   8
TORSDOF 7
ENDMDL
MODEL 2
REMARK VINA RESULT:    -9.712      1.774      2.286
REMARK INTER + INTRA:         -14.134
REMARK INTER:                 -14.201
REMARK INTRA:                   0.067
REMARK UNBOUND:                -0.448
REMARK SMILES CCN(CC)CCNC(=O)c1c(C)[nH]c(/C=C2\C(=O)Nc3ccc(F)cc32)c1C
REMARK SMILES IDX 7 1 6 2 3 3 2 4 1 5 4 6 5 7 8 8 9 9 10 10 11 12 12 13 28 14
REMARK SMILES IDX 14 15 15 16 13 17 29 18 16 20 17 21 18 22 27 23 19 24 20 25
REMARK SMILES IDX 26 26 21 27 24 28 22 29 23 30 25 32
REMARK H PARENT 8 11 14 19 20 31
ROOT
ATOM      1  C   UNL     1     -37.943 157.128   2.918  1.00  0.00    +0.131 C 
ENDROOT
BRANCH   1   2
ATOM      2  C   UNL     1     -36.872 157.799   3.801  1.00  0.00    +0.105 C 
BRANCH   2   3
ATOM      3  N   UNL     1     -35.717 156.942   4.146  1.00  0.00    -0.302 NA
BRANCH   3   4
ATOM      4  C   UNL     1     -36.168 155.824   4.994  1.00  0.00    +0.081 C 
ATOM      5  C   UNL     1     -36.666 156.251   6.371  1.00  0.00    +0.021 C 
ENDBRANCH   3   4
BRANCH   3   6
ATOM      6  C   UNL     1     -34.564 157.678   4.686  1.00  0.00    +0.081 C 
ATOM      7  C   UNL     1     -33.287 156.873   4.908  1.00  0.00    +0.021 C 
ENDBRANCH   3   6
ENDBRANCH   2   3
ENDBRANCH   1   2
BRANCH   1   8
ATOM      8  N   UNL     1     -38.510 158.044   1.946  1.00  0.00    -0.351 N 
ATOM      9  C   UNL     1     -39.826 158.446   2.003  1.00  0.00    +0.253 C 
ATOM     10  O   UNL     1     -40.616 158.024   2.842  1.00  0.00    -0.269 OA
ATOM     11  H   UNL     1     -37.883 158.592   1.375  1.00  0.00    +0.163 HD
BRANCH   9  12
ATOM     12  C   UNL     1     -40.192 159.474   1.022  1.00  0.00    +0.063 A 
ATOM     13  C   UNL     1     -41.428 160.089   0.861  1.00  0.00    +0.025 A 
ATOM     14  C   UNL     1     -39.308 160.077   0.055  1.00  0.00    -0.013 A 
ATOM     15  N   UNL     1     -41.317 160.982  -0.177  1.00  0.00    -0.358 N 
ATOM     16  C   UNL     1     -40.039 161.014  -0.671  1.00  0.00    +0.043 A 
ATOM     17  C   UNL     1     -42.713 159.968   1.600  1.00  0.00    +0.065 C 
ATOM     18  C   UNL     1     -37.864 159.735  -0.108  1.00  0.00    +0.047 C 
ATOM     19  H   UNL     1     -42.084 161.562  -0.507  1.00  0.00    +0.166 HD
BRANCH  16  20
ATOM     20  C   UNL     1     -39.648 161.894  -1.721  1.00  0.00    +0.041 C 
ATOM     21  C   UNL     1     -39.244 161.614  -2.972  1.00  0.00    +0.051 C 
ATOM     22  C   UNL     1     -39.067 160.296  -3.689  1.00  0.00    +0.256 C 
ATOM     23  C   UNL     1     -38.866 162.660  -3.945  1.00  0.00    +0.014 A 
ATOM     24  O   UNL     1     -39.272 159.173  -3.268  1.00  0.00    -0.269 OA
ATOM     25  N   UNL     1     -38.619 160.621  -4.958  1.00  0.00    -0.321 N 
ATOM     26  C   UNL     1     -38.820 164.042  -3.888  1.00  0.00    +0.050 A 
ATOM     27  C   UNL     1     -38.498 161.994  -5.120  1.00  0.00    +0.049 A 
ATOM     28  C   UNL     1     -38.401 164.725  -5.030  1.00  0.00    +0.123 A 
ATOM     29  C   UNL     1     -38.082 162.657  -6.259  1.00  0.00    +0.030 A 
ATOM     30  C   UNL     1     -38.035 164.051  -6.204  1.00  0.00    +0.041 A 
ATOM     31  H   UNL     1     -38.419 159.923  -5.659  1.00  0.00    +0.170 HD
ATOM     32  F   UNL     1     -38.346 166.062  -5.006  1.00  0.00    -0.207 F 
ENDBRANCH  16  20
ENDBRANCH   9  12
ENDBRANCH   1   8
TORSDOF 7
ENDMDL
MODEL 3
REMARK VINA RESULT:    -9.380      3.882     10.523
REMARK INTER + INTRA:         -13.666
REMARK INTER:                 -12.669
REMARK INTRA:                  -0.997
REMARK UNBOUND:                -0.448
REMARK SMILES CCN(CC)CCNC(=O)c1c(C)[nH]c(/C=C2\C(=O)Nc3ccc(F)cc32)c1C
REMARK SMILES IDX 7 1 6 2 3 3 2 4 1 5 4 6 5 7 8 8 9 9 10 10 11 12 12 13 28 14
REMARK SMILES IDX 14 15 15 16 13 17 29 18 16 20 17 21 18 22 27 23 19 24 20 25
REMARK SMILES IDX 26 26 21 27 24 28 22 29 23 30 25 32
REMARK H PARENT 8 11 14 19 20 31
ROOT
ATOM      1  C   UNL     1     -37.931 165.760  -7.759  1.00  0.00    +0.131 C 
ENDROOT
BRANCH   1   2
ATOM      2  C   UNL     1     -38.257 165.614  -9.259  1.00  0.00    +0.105 C 
BRANCH   2   3
ATOM      3  N   UNL     1     -37.215 164.941 -10.065  1.00  0.00    -0.302 NA
BRANCH   3   4
ATOM      4  C   UNL     1     -36.420 165.949 -10.788  1.00  0.00    +0.081 C 
ATOM      5  C   UNL     1     -35.077 165.434 -11.293  1.00  0.00    +0.021 C 
ENDBRANCH   3   4
BRANCH   3   6
ATOM      6  C   UNL     1     -37.724 163.855 -10.916  1.00  0.00    +0.081 C 
ATOM      7  C   UNL     1     -38.600 162.809 -10.232  1.00  0.00    +0.021 C 
ENDBRANCH   3   6
ENDBRANCH   2   3
ENDBRANCH   1   2
BRANCH   1   8
ATOM      8  N   UNL     1     -38.348 164.604  -6.989  1.00  0.00    -0.351 N 
ATOM      9  C   UNL     1     -37.696 164.219  -5.839  1.00  0.00    +0.253 C 
ATOM     10  O   UNL     1     -36.697 164.793  -5.416  1.00  0.00    -0.269 OA
ATOM     11  H   UNL     1     -39.270 164.225  -7.146  1.00  0.00    +0.163 HD
BRANCH   9  12
ATOM     12  C   UNL     1     -38.332 163.111  -5.119  1.00  0.00    +0.063 A 
ATOM     13  C   UNL     1     -38.523 161.809  -5.566  1.00  0.00    +0.025 A 
ATOM     14  C   UNL     1     -38.848 163.158  -3.772  1.00  0.00    -0.013 A 
ATOM     15  N   UNL     1     -39.163 161.115  -4.567  1.00  0.00    -0.358 N 
ATOM     16  C   UNL     1     -39.353 161.899  -3.460  1.00  0.00    +0.043 A 
ATOM     17  C   UNL     1     -38.138 161.113  -6.823  1.00  0.00    +0.065 C 
ATOM     18  C   UNL     1     -38.824 164.365  -2.893  1.00  0.00    +0.047 C 
ATOM     19  H   UNL     1     -39.428 160.136  -4.641  1.00  0.00    +0.166 HD
BRANCH  16  20
ATOM     20  C   UNL     1     -39.952 161.402  -2.265  1.00  0.00    +0.041 C 
ATOM     21  C   UNL     1     -39.514 160.461  -1.413  1.00  0.00    +0.051 C 
ATOM     22  C   UNL     1     -38.260 159.617  -1.419  1.00  0.00    +0.256 C 
ATOM     23  C   UNL     1     -40.270 160.056  -0.209  1.00  0.00    +0.014 A 
ATOM     24  O   UNL     1     -37.348 159.624  -2.224  1.00  0.00    -0.269 OA
ATOM     25  N   UNL     1     -38.347 158.814  -0.295  1.00  0.00    -0.321 N 
ATOM     26  C   UNL     1     -41.475 160.459   0.339  1.00  0.00    +0.050 A 
ATOM     27  C   UNL     1     -39.512 159.060   0.419  1.00  0.00    +0.049 A 
ATOM     28  C   UNL     1     -41.891 159.840   1.518  1.00  0.00    +0.123 A 
ATOM     29  C   UNL     1     -39.911 158.439   1.587  1.00  0.00    +0.030 A 
ATOM     30  C   UNL     1     -41.126 158.843   2.142  1.00  0.00    +0.041 A 
ATOM     31  H   UNL     1     -37.634 158.145  -0.048  1.00  0.00    +0.170 HD
ATOM     32  F   UNL     1     -43.053 160.208   2.072  1.00  0.00    -0.207 F 
ENDBRANCH  16  20
ENDBRANCH   9  12
ENDBRANCH   1   8
TORSDOF 7
ENDMDL
MODEL 4
REMARK VINA RESULT:    -9.333      2.970      5.252
REMARK INTER + INTRA:         -13.600
REMARK INTER:                 -12.960
REMARK INTRA:                  -0.641
REMARK UNBOUND:                -0.448
REMARK SMILES CCN(CC)CCNC(=O)c1c(C)[nH]c(/C=C2\C(=O)Nc3ccc(F)cc32)c1C
REMARK SMILES IDX 7 1 6 2 3 3 2 4 1 5 4 6 5 7 8 8 9 9 10 10 11 12 12 13 28 14
REMARK SMILES IDX 14 15 15 16 13 17 29 18 16 20 17 21 18 22 27 23 19 24 20 25
REMARK SMILES IDX 26 26 21 27 24 28 22 29 23 30 25 32
REMARK H PARENT 8 11 14 19 20 31
ROOT
ATOM      1  C   UNL     1     -41.272 160.584  -0.068  1.00  0.00    +0.131 C 
ENDROOT
BRANCH   1   2
ATOM      2  C   UNL     1     -40.741 159.162   0.206  1.00  0.00    +0.105 C 
BRANCH   2   3
ATOM      3  N   UNL     1     -39.789 159.055   1.332  1.00  0.00    -0.302 NA
BRANCH   3   4
ATOM      4  C   UNL     1     -38.550 158.403   0.872  1.00  0.00    +0.081 C 
ATOM      5  C   UNL     1     -38.471 158.218  -0.640  1.00  0.00    +0.021 C 
ENDBRANCH   3   4
BRANCH   3   6
ATOM      6  C   UNL     1     -40.363 158.461   2.548  1.00  0.00    +0.081 C 
ATOM      7  C   UNL     1     -41.886 158.436   2.640  1.00  0.00    +0.021 C 
ENDBRANCH   3   6
ENDBRANCH   2   3
ENDBRANCH   1   2
BRANCH   1   8
ATOM      8  N   UNL     1     -40.726 161.151  -1.287  1.00  0.00    -0.351 N 
ATOM      9  C   UNL     1     -39.511 161.798  -1.310  1.00  0.00    +0.253 C 
ATOM     10  O   UNL     1     -38.834 161.981  -0.303  1.00  0.00    -0.269 OA
ATOM     11  H   UNL     1     -41.109 160.854  -2.172  1.00  0.00    +0.163 HD
BRANCH   9  12
ATOM     12  C   UNL     1     -39.055 162.190  -2.649  1.00  0.00    +0.063 A 
ATOM     13  C   UNL     1     -38.742 163.468  -3.096  1.00  0.00    +0.025 A 
ATOM     14  C   UNL     1     -38.802 161.299  -3.754  1.00  0.00    -0.013 A 
ATOM     15  N   UNL     1     -38.365 163.368  -4.414  1.00  0.00    -0.358 N 
ATOM     16  C   UNL     1     -38.370 162.064  -4.834  1.00  0.00    +0.043 A 
ATOM     17  C   UNL     1     -38.715 164.791  -2.416  1.00  0.00    +0.065 C 
ATOM     18  C   UNL     1     -38.978 159.817  -3.710  1.00  0.00    +0.047 C 
ATOM     19  H   UNL     1     -38.091 164.163  -4.984  1.00  0.00    +0.166 HD
BRANCH  16  20
ATOM     20  C   UNL     1     -37.972 161.684  -6.149  1.00  0.00    +0.041 C 
ATOM     21  C   UNL     1     -37.891 162.421  -7.269  1.00  0.00    +0.051 C 
ATOM     22  C   UNL     1     -38.188 163.881  -7.524  1.00  0.00    +0.256 C 
ATOM     23  C   UNL     1     -37.458 161.862  -8.567  1.00  0.00    +0.014 A 
ATOM     24  O   UNL     1     -38.566 164.725  -6.733  1.00  0.00    -0.269 OA
ATOM     25  N   UNL     1     -37.933 164.083  -8.869  1.00  0.00    -0.321 N 
ATOM     26  C   UNL     1     -37.055 160.602  -8.974  1.00  0.00    +0.050 A 
ATOM     27  C   UNL     1     -37.507 162.915  -9.488  1.00  0.00    +0.049 A 
ATOM     28  C   UNL     1     -36.709 160.435 -10.315  1.00  0.00    +0.123 A 
ATOM     29  C   UNL     1     -37.166 162.764 -10.819  1.00  0.00    +0.030 A 
ATOM     30  C   UNL     1     -36.760 161.495 -11.233  1.00  0.00    +0.041 A 
ATOM     31  H   UNL     1     -38.047 164.980  -9.316  1.00  0.00    +0.170 HD
ATOM     32  F   UNL     1     -36.316 159.228 -10.741  1.00  0.00    -0.207 F 
ENDBRANCH  16  20
ENDBRANCH   9  12
ENDBRANCH   1   8
TORSDOF 7
ENDMDL
MODEL 5
REMARK VINA RESULT:    -9.173      4.036     10.331
REMARK INTER + INTRA:         -13.374
REMARK INTER:                 -12.117
REMARK INTRA:                  -1.257
REMARK UNBOUND:                -0.448
REMARK SMILES CCN(CC)CCNC(=O)c1c(C)[nH]c(/C=C2\C(=O)Nc3ccc(F)cc32)c1C
REMARK SMILES IDX 7 1 6 2 3 3 2 4 1 5 4 6 5 7 8 8 9 9 10 10 11 12 12 13 28 14
REMARK SMILES IDX 14 15 15 16 13 17 29 18 16 20 17 21 18 22 27 23 19 24 20 25
REMARK SMILES IDX 26 26 21 27 24 28 22 29 23 30 25 32
REMARK H PARENT 8 11 14 19 20 31
ROOT
ATOM      1  C   UNL     1     -38.098 162.254  -9.508  1.00  0.00    +0.131 C 
ENDROOT
BRANCH   1   2
ATOM      2  C   UNL     1     -38.440 163.539 -10.289  1.00  0.00    +0.105 C 
BRANCH   2   3
ATOM      3  N   UNL     1     -37.276 164.363 -10.679  1.00  0.00    -0.302 NA
BRANCH   3   4
ATOM      4  C   UNL     1     -36.074 163.513 -10.764  1.00  0.00    +0.081 C 
ATOM      5  C   UNL     1     -34.799 164.275 -11.111  1.00  0.00    +0.021 C 
ENDBRANCH   3   4
BRANCH   3   6
ATOM      6  C   UNL     1     -37.098 165.574  -9.864  1.00  0.00    +0.081 C 
ATOM      7  C   UNL     1     -38.201 165.883  -8.856  1.00  0.00    +0.021 C 
ENDBRANCH   3   6
ENDBRANCH   2   3
ENDBRANCH   1   2
BRANCH   1   8
ATOM      8  N   UNL     1     -38.445 162.353  -8.103  1.00  0.00    -0.351 N 
ATOM      9  C   UNL     1     -37.506 162.201  -7.107  1.00  0.00    +0.253 C 
ATOM     10  O   UNL     1     -36.332 161.926  -7.335  1.00  0.00    -0.269 OA
ATOM     11  H   UNL     1     -39.321 162.787  -7.850  1.00  0.00    +0.163 HD
BRANCH   9  12
ATOM     12  C   UNL     1     -38.005 162.465  -5.753  1.00  0.00    +0.063 A 
ATOM     13  C   UNL     1     -37.833 163.618  -4.996  1.00  0.00    +0.025 A 
ATOM     14  C   UNL     1     -38.819 161.575  -4.960  1.00  0.00    -0.013 A 
ATOM     15  N   UNL     1     -38.465 163.424  -3.791  1.00  0.00    -0.358 N 
ATOM     16  C   UNL     1     -39.090 162.205  -3.748  1.00  0.00    +0.043 A 
ATOM     17  C   UNL     1     -37.170 164.917  -5.285  1.00  0.00    +0.065 C 
ATOM     18  C   UNL     1     -39.276 160.223  -5.398  1.00  0.00    +0.047 C 
ATOM     19  H   UNL     1     -38.485 164.116  -3.047  1.00  0.00    +0.166 HD
BRANCH  16  20
ATOM     20  C   UNL     1     -39.858 161.780  -2.626  1.00  0.00    +0.041 C 
ATOM     21  C   UNL     1     -39.604 160.814  -1.727  1.00  0.00    +0.051 C 
ATOM     22  C   UNL     1     -38.440 159.859  -1.593  1.00  0.00    +0.256 C 
ATOM     23  C   UNL     1     -40.521 160.495  -0.613  1.00  0.00    +0.014 A 
ATOM     24  O   UNL     1     -37.449 159.773  -2.294  1.00  0.00    -0.269 OA
ATOM     25  N   UNL     1     -38.723 159.082  -0.484  1.00  0.00    -0.321 N 
ATOM     26  C   UNL     1     -41.737 161.014  -0.202  1.00  0.00    +0.050 A 
ATOM     27  C   UNL     1     -39.931 159.443   0.097  1.00  0.00    +0.049 A 
ATOM     28  C   UNL     1     -42.334 160.450   0.927  1.00  0.00    +0.123 A 
ATOM     29  C   UNL     1     -40.511 158.876   1.217  1.00  0.00    +0.030 A 
ATOM     30  C   UNL     1     -41.737 159.396   1.633  1.00  0.00    +0.041 A 
ATOM     31  H   UNL     1     -38.105 158.354  -0.157  1.00  0.00    +0.170 HD
ATOM     32  F   UNL     1     -43.511 160.929   1.349  1.00  0.00    -0.207 F 
ENDBRANCH  16  20
ENDBRANCH   9  12
ENDBRANCH   1   8
TORSDOF 7
ENDMDL
MODEL 6
REMARK VINA RESULT:    -9.144      1.691      2.427
REMARK INTER + INTRA:         -13.333
REMARK INTER:                 -12.816
REMARK INTRA:                  -0.518
REMARK UNBOUND:                -0.448
REMARK SMILES CCN(CC)CCNC(=O)c1c(C)[nH]c(/C=C2\C(=O)Nc3ccc(F)cc32)c1C
REMARK SMILES IDX 7 1 6 2 3 3 2 4 1 5 4 6 5 7 8 8 9 9 10 10 11 12 12 13 28 14
REMARK SMILES IDX 14 15 15 16 13 17 29 18 16 20 17 21 18 22 27 23 19 24 20 25
REMARK SMILES IDX 26 26 21 27 24 28 22 29 23 30 25 32
REMARK H PARENT 8 11 14 19 20 31
ROOT
ATOM      1  C   UNL     1     -38.331 157.630   1.994  1.00  0.00    +0.131 C 
ENDROOT
BRANCH   1   2
ATOM      2  C   UNL     1     -37.490 158.132   3.185  1.00  0.00    +0.105 C 
BRANCH   2   3
ATOM      3  N   UNL     1     -36.517 157.156   3.721  1.00  0.00    -0.302 NA
BRANCH   3   4
ATOM      4  C   UNL     1     -37.202 155.885   4.014  1.00  0.00    +0.081 C 
ATOM      5  C   UNL     1     -37.854 155.835   5.392  1.00  0.00    +0.021 C 
ENDBRANCH   3   4
BRANCH   3   6
ATOM      6  C   UNL     1     -35.703 157.670   4.833  1.00  0.00    +0.081 C 
ATOM      7  C   UNL     1     -34.202 157.411   4.753  1.00  0.00    +0.021 C 
ENDBRANCH   3   6
ENDBRANCH   2   3
ENDBRANCH   1   2
BRANCH   1   8
ATOM      8  N   UNL     1     -38.267 158.528   0.856  1.00  0.00    -0.351 N 
ATOM      9  C   UNL     1     -39.399 159.069   0.289  1.00  0.00    +0.253 C 
ATOM     10  O   UNL     1     -40.532 158.795   0.672  1.00  0.00    -0.269 OA
ATOM     11  H   UNL     1     -37.384 158.963   0.632  1.00  0.00    +0.163 HD
BRANCH   9  12
ATOM     12  C   UNL     1     -39.141 160.055  -0.766  1.00  0.00    +0.063 A 
ATOM     13  C   UNL     1     -38.944 161.423  -0.616  1.00  0.00    +0.025 A 
ATOM     14  C   UNL     1     -38.998 159.775  -2.174  1.00  0.00    -0.013 A 
ATOM     15  N   UNL     1     -38.740 161.954  -1.867  1.00  0.00    -0.358 N 
ATOM     16  C   UNL     1     -38.745 160.977  -2.829  1.00  0.00    +0.043 A 
ATOM     17  C   UNL     1     -38.884 162.303   0.581  1.00  0.00    +0.065 C 
ATOM     18  C   UNL     1     -39.104 158.417  -2.786  1.00  0.00    +0.047 C 
ATOM     19  H   UNL     1     -38.578 162.942  -2.041  1.00  0.00    +0.166 HD
BRANCH  16  20
ATOM     20  C   UNL     1     -38.507 161.260  -4.205  1.00  0.00    +0.041 C 
ATOM     21  C   UNL     1     -38.474 162.440  -4.847  1.00  0.00    +0.051 C 
ATOM     22  C   UNL     1     -38.673 163.852  -4.346  1.00  0.00    +0.256 C 
ATOM     23  C   UNL     1     -38.215 162.556  -6.297  1.00  0.00    +0.014 A 
ATOM     24  O   UNL     1     -38.903 164.226  -3.211  1.00  0.00    -0.269 OA
ATOM     25  N   UNL     1     -38.534 164.663  -5.458  1.00  0.00    -0.321 N 
ATOM     26  C   UNL     1     -37.958 161.633  -7.296  1.00  0.00    +0.050 A 
ATOM     27  C   UNL     1     -38.266 163.921  -6.601  1.00  0.00    +0.049 A 
ATOM     28  C   UNL     1     -37.758 162.116  -8.589  1.00  0.00    +0.123 A 
ATOM     29  C   UNL     1     -38.068 164.414  -7.877  1.00  0.00    +0.030 A 
ATOM     30  C   UNL     1     -37.810 163.486  -8.886  1.00  0.00    +0.041 A 
ATOM     31  H   UNL     1     -38.616 165.668  -5.412  1.00  0.00    +0.170 HD
ATOM     32  F   UNL     1     -37.508 161.247  -9.577  1.00  0.00    -0.207 F 
ENDBRANCH  16  20
ENDBRANCH   9  12
ENDBRANCH   1   8
TORSDOF 7
ENDMDL
MODEL 7
REMARK VINA RESULT:    -9.017      3.354      6.009
REMARK INTER + INTRA:         -13.155
REMARK INTER:                 -13.382
REMARK INTRA:                   0.227
REMARK UNBOUND:                -0.448
REMARK SMILES CCN(CC)CCNC(=O)c1c(C)[nH]c(/C=C2\C(=O)Nc3ccc(F)cc32)c1C
REMARK SMILES IDX 7 1 6 2 3 3 2 4 1 5 4 6 5 7 8 8 9 9 10 10 11 12 12 13 28 14
REMARK SMILES IDX 14 15 15 16 13 17 29 18 16 20 17 21 18 22 27 23 19 24 20 25
REMARK SMILES IDX 26 26 21 27 24 28 22 29 23 30 25 32
REMARK H PARENT 8 11 14 19 20 31
ROOT
ATOM      1  C   UNL     1     -40.318 160.872   0.101  1.00  0.00    +0.131 C 
ENDROOT
BRANCH   1   2
ATOM      2  C   UNL     1     -40.961 159.482   0.272  1.00  0.00    +0.105 C 
BRANCH   2   3
ATOM      3  N   UNL     1     -40.121 158.484   0.969  1.00  0.00    -0.302 NA
BRANCH   3   4
ATOM      4  C   UNL     1     -40.377 158.547   2.419  1.00  0.00    +0.081 C 
ATOM      5  C   UNL     1     -41.833 158.301   2.803  1.00  0.00    +0.021 C 
ENDBRANCH   3   4
BRANCH   3   6
ATOM      6  C   UNL     1     -38.697 158.543   0.608  1.00  0.00    +0.081 C 
ATOM      7  C   UNL     1     -38.328 158.056  -0.789  1.00  0.00    +0.021 C 
ENDBRANCH   3   6
ENDBRANCH   2   3
ENDBRANCH   1   2
BRANCH   1   8
ATOM      8  N   UNL     1     -40.035 161.182  -1.288  1.00  0.00    -0.351 N 
ATOM      9  C   UNL     1     -39.311 162.295  -1.654  1.00  0.00    +0.253 C 
ATOM     10  O   UNL     1     -38.901 163.119  -0.844  1.00  0.00    -0.269 OA
ATOM     11  H   UNL     1     -40.145 160.454  -1.978  1.00  0.00    +0.163 HD
BRANCH   9  12
ATOM     12  C   UNL     1     -39.009 162.380  -3.088  1.00  0.00    +0.063 A 
ATOM     13  C   UNL     1     -38.902 161.333  -3.994  1.00  0.00    +0.025 A 
ATOM     14  C   UNL     1     -38.804 163.593  -3.841  1.00  0.00    -0.013 A 
ATOM     15  N   UNL     1     -38.603 161.873  -5.222  1.00  0.00    -0.358 N 
ATOM     16  C   UNL     1     -38.558 163.242  -5.166  1.00  0.00    +0.043 A 
ATOM     17  C   UNL     1     -39.089 159.864  -3.857  1.00  0.00    +0.065 C 
ATOM     18  C   UNL     1     -38.858 164.971  -3.268  1.00  0.00    +0.047 C 
ATOM     19  H   UNL     1     -38.464 161.320  -6.063  1.00  0.00    +0.166 HD
BRANCH  16  20
ATOM     20  C   UNL     1     -38.314 164.046  -6.316  1.00  0.00    +0.041 C 
ATOM     21  C   UNL     1     -38.024 163.678  -7.576  1.00  0.00    +0.051 C 
ATOM     22  C   UNL     1     -37.857 162.312  -8.201  1.00  0.00    +0.256 C 
ATOM     23  C   UNL     1     -37.792 164.653  -8.662  1.00  0.00    +0.014 A 
ATOM     24  O   UNL     1     -37.967 161.221  -7.674  1.00  0.00    -0.269 OA
ATOM     25  N   UNL     1     -37.553 162.547  -9.530  1.00  0.00    -0.321 N 
ATOM     26  C   UNL     1     -37.806 166.036  -8.719  1.00  0.00    +0.050 A 
ATOM     27  C   UNL     1     -37.513 163.906  -9.812  1.00  0.00    +0.049 A 
ATOM     28  C   UNL     1     -37.534 166.636  -9.949  1.00  0.00    +0.123 A 
ATOM     29  C   UNL     1     -37.243 164.487 -11.037  1.00  0.00    +0.030 A 
ATOM     30  C   UNL     1     -37.255 165.881 -11.098  1.00  0.00    +0.041 A 
ATOM     31  H   UNL     1     -37.392 161.802 -10.191  1.00  0.00    +0.170 HD
ATOM     32  F   UNL     1     -37.539 167.972 -10.037  1.00  0.00    -0.207 F 
ENDBRANCH  16  20
ENDBRANCH   9  12
ENDBRANCH   1   8
TORSDOF 7
ENDMDL
MODEL 8
REMARK VINA RESULT:    -8.304      6.458     12.790
REMARK INTER + INTRA:         -12.150
REMARK INTER:                 -11.290
REMARK INTRA:                  -0.860
REMARK UNBOUND:                -0.448
REMARK SMILES CCN(CC)CCNC(=O)c1c(C)[nH]c(/C=C2\C(=O)Nc3ccc(F)cc32)c1C
REMARK SMILES IDX 7 1 6 2 3 3 2 4 1 5 4 6 5 7 8 8 9 9 10 10 11 12 12 13 28 14
REMARK SMILES IDX 14 15 15 16 13 17 29 18 16 20 17 21 18 22 27 23 19 24 20 25
REMARK SMILES IDX 26 26 21 27 24 28 22 29 23 30 25 32
REMARK H PARENT 8 11 14 19 20 31
ROOT
ATOM      1  C   UNL     1     -38.132 158.136   3.160  1.00  0.00    +0.131 C 
ENDROOT
BRANCH   1   2
ATOM      2  C   UNL     1     -38.245 158.024   1.627  1.00  0.00    +0.105 C 
BRANCH   2   3
ATOM      3  N   UNL     1     -39.580 158.334   1.072  1.00  0.00    -0.302 NA
BRANCH   3   4
ATOM      4  C   UNL     1     -39.437 158.858  -0.298  1.00  0.00    +0.081 C 
ATOM      5  C   UNL     1     -38.395 158.126  -1.137  1.00  0.00    +0.021 C 
ENDBRANCH   3   4
BRANCH   3   6
ATOM      6  C   UNL     1     -40.414 159.169   1.950  1.00  0.00    +0.081 C 
ATOM      7  C   UNL     1     -41.704 158.537   2.465  1.00  0.00    +0.021 C 
ENDBRANCH   3   6
ENDBRANCH   2   3
ENDBRANCH   1   2
BRANCH   1   8
ATOM      8  N   UNL     1     -37.218 157.158   3.719  1.00  0.00    -0.351 N 
ATOM      9  C   UNL     1     -36.603 157.347   4.937  1.00  0.00    +0.253 C 
ATOM     10  O   UNL     1     -36.746 158.366   5.604  1.00  0.00    -0.269 OA
ATOM     11  H   UNL     1     -37.224 156.221   3.344  1.00  0.00    +0.163 HD
BRANCH   9  12
ATOM     12  C   UNL     1     -35.818 156.199   5.407  1.00  0.00    +0.063 A 
ATOM     13  C   UNL     1     -34.459 155.971   5.225  1.00  0.00    +0.025 A 
ATOM     14  C   UNL     1     -36.313 155.098   6.196  1.00  0.00    -0.013 A 
ATOM     15  N   UNL     1     -34.153 154.775   5.828  1.00  0.00    -0.358 N 
ATOM     16  C   UNL     1     -35.251 154.233   6.444  1.00  0.00    +0.043 A 
ATOM     17  C   UNL     1     -33.386 156.771   4.577  1.00  0.00    +0.065 C 
ATOM     18  C   UNL     1     -37.726 154.947   6.655  1.00  0.00    +0.047 C 
ATOM     19  H   UNL     1     -33.221 154.369   5.835  1.00  0.00    +0.166 HD
BRANCH  16  20
ATOM     20  C   UNL     1     -35.188 153.017   7.183  1.00  0.00    +0.041 C 
ATOM     21  C   UNL     1     -35.804 151.843   6.960  1.00  0.00    +0.051 C 
ATOM     22  C   UNL     1     -36.757 151.410   5.870  1.00  0.00    +0.256 C 
ATOM     23  C   UNL     1     -35.631 150.668   7.840  1.00  0.00    +0.014 A 
ATOM     24  O   UNL     1     -37.171 152.057   4.927  1.00  0.00    -0.269 OA
ATOM     25  N   UNL     1     -37.073 150.093   6.155  1.00  0.00    -0.321 N 
ATOM     26  C   UNL     1     -34.893 150.438   8.988  1.00  0.00    +0.050 A 
ATOM     27  C   UNL     1     -36.424 149.649   7.299  1.00  0.00    +0.049 A 
ATOM     28  C   UNL     1     -34.974 149.171   9.568  1.00  0.00    +0.123 A 
ATOM     29  C   UNL     1     -36.513 148.390   7.862  1.00  0.00    +0.030 A 
ATOM     30  C   UNL     1     -35.770 148.154   9.020  1.00  0.00    +0.041 A 
ATOM     31  H   UNL     1     -37.697 149.547   5.581  1.00  0.00    +0.170 HD
ATOM     32  F   UNL     1     -34.272 148.918  10.679  1.00  0.00    -0.207 F 
ENDBRANCH  16  20
ENDBRANCH   9  12
ENDBRANCH   1   8
TORSDOF 7
ENDMDL
MODEL 9
REMARK VINA RESULT:    -7.723      9.298     12.578
REMARK INTER + INTRA:         -11.331
REMARK INTER:                 -10.532
REMARK INTRA:                  -0.799
REMARK UNBOUND:                -0.448
REMARK SMILES CCN(CC)CCNC(=O)c1c(C)[nH]c(/C=C2\C(=O)Nc3ccc(F)cc32)c1C
REMARK SMILES IDX 7 1 6 2 3 3 2 4 1 5 4 6 5 7 8 8 9 9 10 10 11 12 12 13 28 14
REMARK SMILES IDX 14 15 15 16 13 17 29 18 16 20 17 21 18 22 27 23 19 24 20 25
REMARK SMILES IDX 26 26 21 27 24 28 22 29 23 30 25 32
REMARK H PARENT 8 11 14 19 20 31
ROOT
ATOM      1  C   UNL     1     -37.100 159.993   7.433  1.00  0.00    +0.131 C 
ENDROOT
BRANCH   1   2
ATOM      2  C   UNL     1     -37.465 160.398   8.876  1.00  0.00    +0.105 C 
BRANCH   2   3
ATOM      3  N   UNL     1     -37.235 161.822   9.204  1.00  0.00    -0.302 NA
BRANCH   3   4
ATOM      4  C   UNL     1     -35.787 162.087   9.270  1.00  0.00    +0.081 C 
ATOM      5  C   UNL     1     -34.986 160.990   9.965  1.00  0.00    +0.021 C 
ENDBRANCH   3   4
BRANCH   3   6
ATOM      6  C   UNL     1     -37.985 162.295  10.377  1.00  0.00    +0.081 C 
ATOM      7  C   UNL     1     -38.178 163.804  10.497  1.00  0.00    +0.021 C 
ENDBRANCH   3   6
ENDBRANCH   2   3
ENDBRANCH   1   2
BRANCH   1   8
ATOM      8  N   UNL     1     -36.561 158.648   7.358  1.00  0.00    -0.351 N 
ATOM      9  C   UNL     1     -36.413 157.988   6.158  1.00  0.00    +0.253 C 
ATOM     10  O   UNL     1     -36.766 158.468   5.086  1.00  0.00    -0.269 OA
ATOM     11  H   UNL     1     -36.055 158.284   8.152  1.00  0.00    +0.163 HD
BRANCH   9  12
ATOM     12  C   UNL     1     -35.731 156.692   6.256  1.00  0.00    +0.063 A 
ATOM     13  C   UNL     1     -34.424 156.393   5.891  1.00  0.00    +0.025 A 
ATOM     14  C   UNL     1     -36.290 155.479   6.800  1.00  0.00    -0.013 A 
ATOM     15  N   UNL     1     -34.213 155.061   6.152  1.00  0.00    -0.358 N 
ATOM     16  C   UNL     1     -35.317 154.485   6.723  1.00  0.00    +0.043 A 
ATOM     17  C   UNL     1     -33.317 157.227   5.353  1.00  0.00    +0.065 C 
ATOM     18  C   UNL     1     -37.674 155.348   7.345  1.00  0.00    +0.047 C 
ATOM     19  H   UNL     1     -33.335 154.582   5.968  1.00  0.00    +0.166 HD
BRANCH  16  20
ATOM     20  C   UNL     1     -35.341 153.121   7.136  1.00  0.00    +0.041 C 
ATOM     21  C   UNL     1     -36.082 152.098   6.680  1.00  0.00    +0.051 C 
ATOM     22  C   UNL     1     -37.130 152.035   5.592  1.00  0.00    +0.256 C 
ATOM     23  C   UNL     1     -35.985 150.730   7.229  1.00  0.00    +0.014 A 
ATOM     24  O   UNL     1     -37.525 152.931   4.870  1.00  0.00    -0.269 OA
ATOM     25  N   UNL     1     -37.563 150.721   5.570  1.00  0.00    -0.321 N 
ATOM     26  C   UNL     1     -35.214 150.157   8.227  1.00  0.00    +0.050 A 
ATOM     27  C   UNL     1     -36.903 149.950   6.517  1.00  0.00    +0.049 A 
ATOM     28  C   UNL     1     -35.393 148.797   8.483  1.00  0.00    +0.123 A 
ATOM     29  C   UNL     1     -37.090 148.602   6.760  1.00  0.00    +0.030 A 
ATOM     30  C   UNL     1     -36.316 148.022   7.765  1.00  0.00    +0.041 A 
ATOM     31  H   UNL     1     -38.269 150.391   4.928  1.00  0.00    +0.170 HD
ATOM     32  F   UNL     1     -34.663 148.214   9.442  1.00  0.00    -0.207 F 
ENDBRANCH  16  20
ENDBRANCH   9  12
ENDBRANCH   1   8
TORSDOF 7
ENDMDL
MODEL 10
REMARK VINA RESULT:    -7.646     10.279     12.927
REMARK INTER + INTRA:         -11.223
REMARK INTER:                 -10.096
REMARK INTRA:                  -1.126
REMARK UNBOUND:                -0.448
REMARK SMILES CCN(CC)CCNC(=O)c1c(C)[nH]c(/C=C2\C(=O)Nc3ccc(F)cc32)c1C
REMARK SMILES IDX 7 1 6 2 3 3 2 4 1 5 4 6 5 7 8 8 9 9 10 10 11 12 12 13 28 14
REMARK SMILES IDX 14 15 15 16 13 17 29 18 16 20 17 21 18 22 27 23 19 24 20 25
REMARK SMILES IDX 26 26 21 27 24 28 22 29 23 30 25 32
REMARK H PARENT 8 11 14 19 20 31
ROOT
ATOM      1  C   UNL     1     -37.784 153.231   6.478  1.00  0.00    +0.131 C 
ENDROOT
BRANCH   1   2
ATOM      2  C   UNL     1     -36.530 153.912   7.064  1.00  0.00    +0.105 C 
BRANCH   2   3
ATOM      3  N   UNL     1     -35.618 154.511   6.066  1.00  0.00    -0.302 NA
BRANCH   3   4
ATOM      4  C   UNL     1     -34.281 153.904   6.190  1.00  0.00    +0.081 C 
ATOM      5  C   UNL     1     -33.935 152.932   5.066  1.00  0.00    +0.021 C 
ENDBRANCH   3   4
BRANCH   3   6
ATOM      6  C   UNL     1     -35.611 155.982   6.068  1.00  0.00    +0.081 C 
ATOM      7  C   UNL     1     -34.370 156.656   6.645  1.00  0.00    +0.021 C 
ENDBRANCH   3   6
ENDBRANCH   2   3
ENDBRANCH   1   2
BRANCH   1   8
ATOM      8  N   UNL     1     -37.451 152.161   5.557  1.00  0.00    -0.351 N 
ATOM      9  C   UNL     1     -38.201 151.009   5.476  1.00  0.00    +0.253 C 
ATOM     10  O   UNL     1     -39.164 150.789   6.204  1.00  0.00    -0.269 OA
ATOM     11  H   UNL     1     -36.823 152.359   4.792  1.00  0.00    +0.163 HD
BRANCH   9  12
ATOM     12  C   UNL     1     -37.799 150.095   4.401  1.00  0.00    +0.063 A 
ATOM     13  C   UNL     1     -38.506 149.785   3.245  1.00  0.00    +0.025 A 
ATOM     14  C   UNL     1     -36.555 149.370   4.324  1.00  0.00    -0.013 A 
ATOM     15  N   UNL     1     -37.756 148.884   2.527  1.00  0.00    -0.358 N 
ATOM     16  C   UNL     1     -36.559 148.630   3.144  1.00  0.00    +0.043 A 
ATOM     17  C   UNL     1     -39.804 150.267   2.703  1.00  0.00    +0.065 C 
ATOM     18  C   UNL     1     -35.470 149.429   5.349  1.00  0.00    +0.047 C 
ATOM     19  H   UNL     1     -38.049 148.488   1.638  1.00  0.00    +0.166 HD
BRANCH  16  20
ATOM     20  C   UNL     1     -35.576 147.767   2.579  1.00  0.00    +0.041 C 
ATOM     21  C   UNL     1     -35.102 147.712   1.323  1.00  0.00    +0.051 C 
ATOM     22  C   UNL     1     -35.435 148.528   0.096  1.00  0.00    +0.256 C 
ATOM     23  C   UNL     1     -34.074 146.739   0.898  1.00  0.00    +0.014 A 
ATOM     24  O   UNL     1     -36.225 149.447  -0.009  1.00  0.00    -0.269 OA
ATOM     25  N   UNL     1     -34.639 148.019  -0.916  1.00  0.00    -0.321 N 
ATOM     26  C   UNL     1     -33.378 145.739   1.555  1.00  0.00    +0.050 A 
ATOM     27  C   UNL     1     -33.841 146.977  -0.462  1.00  0.00    +0.049 A 
ATOM     28  C   UNL     1     -32.457 144.996   0.816  1.00  0.00    +0.123 A 
ATOM     29  C   UNL     1     -32.931 146.250  -1.206  1.00  0.00    +0.030 A 
ATOM     30  C   UNL     1     -32.229 145.241  -0.546  1.00  0.00    +0.041 A 
ATOM     31  H   UNL     1     -34.655 148.384  -1.856  1.00  0.00    +0.170 HD
ATOM     32  F   UNL     1     -31.769 144.021   1.423  1.00  0.00    -0.207 F 
ENDBRANCH  16  20
ENDBRANCH   9  12
ENDBRANCH   1   8
TORSDOF 7
ENDMDL
