REMARK SMILES Cc1ccc(NC(=O)c2ccc(CN3CCN(C)CC3)cc2)cc1Nc1nccc(-c2cccnc2)n1
REMARK SMILES IDX 6 1 7 2 8 3 5 5 2 6 3 7 24 8 4 9 23 10 1 11 25 12 26 14
REMARK SMILES IDX 27 15 37 16 28 17 30 18 29 19 31 20 32 21 36 22 33 23 35 24
REMARK SMILES IDX 34 25 9 26 10 27 22 28 11 29 21 30 12 31 13 32 14 33 15 34
REMARK SMILES IDX 20 35 16 36 19 37 17 38 18 39
REMARK H PARENT 6 4 25 13
ROOT
ATOM      1  N   UNL     1       0.033   0.633   2.215  1.00  0.00    -0.322 N 
ATOM      2  C   UNL     1       1.258   0.695   2.853  1.00  0.00    +0.255 C 
ATOM      3  O   UNL     1       1.464   0.636   4.059  1.00  0.00    -0.269 OA
ATOM      4  H   UNL     1       0.042   0.559   1.205  1.00  0.00    +0.170 HD
ENDROOT
BRANCH   1   5
ATOM      5  C   UNL     1      -1.245   0.571   2.811  1.00  0.00    +0.043 A 
ATOM      6  C   UNL     1      -3.871   0.451   3.819  1.00  0.00    -0.027 A 
ATOM      7  C   UNL     1      -2.769   0.589   4.680  1.00  0.00    +0.008 A 
ATOM      8  C   UNL     1      -3.668   0.367   2.423  1.00  0.00    +0.046 A 
ATOM      9  C   UNL     1      -1.468   0.649   4.179  1.00  0.00    +0.026 A 
ATOM     10  C   UNL     1      -2.346   0.435   1.950  1.00  0.00    +0.052 A 
ATOM     11  C   UNL     1      -5.248   0.400   4.428  1.00  0.00    +0.046 C 
BRANCH   8  12
ATOM     12  N   UNL     1      -4.769   0.241   1.562  1.00  0.00    -0.324 N 
ATOM     13  H   UNL     1      -5.675   0.126   1.989  1.00  0.00    +0.170 HD
BRANCH  12  14
ATOM     14  C   UNL     1      -4.933   0.198   0.181  1.00  0.00    +0.227 A 
ATOM     15  N   UNL     1      -3.909   0.342  -0.669  1.00  0.00    -0.221 NA
ATOM     16  N   UNL     1      -6.200   0.009  -0.225  1.00  0.00    -0.213 NA
ATOM     17  C   UNL     1      -4.186   0.291  -1.982  1.00  0.00    +0.117 A 
ATOM     18  C   UNL     1      -6.458  -0.029  -1.553  1.00  0.00    +0.077 A 
ATOM     19  C   UNL     1      -5.449   0.107  -2.484  1.00  0.00    +0.049 A 
BRANCH  18  20
ATOM     20  C   UNL     1      -7.870  -0.237  -1.919  1.00  0.00    +0.019 A 
ATOM     21  C   UNL     1      -8.744  -0.967  -1.099  1.00  0.00    +0.013 A 
ATOM     22  C   UNL     1      -8.433   0.277  -3.089  1.00  0.00    +0.121 A 
ATOM     23  C   UNL     1     -10.076  -1.159  -1.465  1.00  0.00    +0.021 A 
ATOM     24  N   UNL     1      -9.721   0.105  -3.481  1.00  0.00    -0.264 NA
ATOM     25  C   UNL     1     -10.513  -0.610  -2.657  1.00  0.00    +0.111 A 
ENDBRANCH  18  20
ENDBRANCH  12  14
ENDBRANCH   8  12
ENDBRANCH   1   5
BRANCH   2  26
ATOM     26  C   UNL     1       2.432   0.802   1.940  1.00  0.00    +0.040 A 
ATOM     27  C   UNL     1       2.377   1.543   0.753  1.00  0.00    +0.014 A 
ATOM     28  C   UNL     1       3.621   0.161   2.303  1.00  0.00    +0.014 A 
ATOM     29  C   UNL     1       3.499   1.613  -0.077  1.00  0.00    +0.006 A 
ATOM     30  C   UNL     1       4.741   0.232   1.472  1.00  0.00    +0.006 A 
ATOM     31  C   UNL     1       4.689   0.954   0.270  1.00  0.00    -0.034 A 
BRANCH  31  32
ATOM     32  C   UNL     1       5.906   1.040  -0.631  1.00  0.00    +0.120 C 
BRANCH  32  33
ATOM     33  N   UNL     1       5.659   0.519  -1.990  1.00  0.00    -0.297 NA
ATOM     34  C   UNL     1       5.413  -0.938  -1.985  1.00  0.00    +0.100 C 
ATOM     35  C   UNL     1       6.823   0.797  -2.866  1.00  0.00    +0.100 C 
ATOM     36  C   UNL     1       6.622  -1.821  -1.573  1.00  0.00    +0.099 C 
ATOM     37  C   UNL     1       7.902  -0.318  -2.968  1.00  0.00    +0.099 C 
ATOM     38  N   UNL     1       7.937  -1.186  -1.784  1.00  0.00    -0.304 NA
ATOM     39  C   UNL     1       9.001  -2.179  -1.866  1.00  0.00    +0.105 C 
ENDBRANCH  32  33
ENDBRANCH  31  32
ENDBRANCH   2  26
TORSDOF 7
