MODEL 1
REMARK VINA RESULT:    -9.966      0.000      0.000
REMARK INTER + INTRA:         -15.029
REMARK INTER:                 -14.044
REMARK INTRA:                  -0.984
REMARK UNBOUND:                -0.984
REMARK SMILES Cc1ccc(NC(=O)c2ccc(CN3CCN(C)CC3)cc2)cc1Nc1nccc(-c2cccnc2)n1
REMARK SMILES IDX 6 1 7 2 8 3 5 5 2 6 3 7 24 8 4 9 23 10 1 11 25 12 26 14
REMARK SMILES IDX 27 15 37 16 28 17 30 18 29 19 31 20 32 21 36 22 33 23 35 24
REMARK SMILES IDX 34 25 9 26 10 27 22 28 11 29 21 30 12 31 13 32 14 33 15 34
REMARK SMILES IDX 20 35 16 36 19 37 17 38 18 39
REMARK H PARENT 6 4 25 13
ROOT
ATOM      1  N   UNL     1     -11.691   3.175 -13.727  1.00  0.00    -0.322 N 
ATOM      2  C   UNL     1     -12.965   2.937 -13.246  1.00  0.00    +0.255 C 
ATOM      3  O   UNL     1     -14.018   3.356 -13.711  1.00  0.00    -0.269 OA
ATOM      4  H   UNL     1     -10.934   2.646 -13.311  1.00  0.00    +0.170 HD
ENDROOT
BRANCH   1   5
ATOM      5  C   UNL     1     -11.319   4.014 -14.800  1.00  0.00    +0.043 A 
ATOM      6  C   UNL     1     -10.423   5.569 -16.969  1.00  0.00    -0.027 A 
ATOM      7  C   UNL     1     -11.515   5.978 -16.186  1.00  0.00    +0.008 A 
ATOM      8  C   UNL     1      -9.759   4.357 -16.674  1.00  0.00    +0.046 A 
ATOM      9  C   UNL     1     -11.958   5.206 -15.110  1.00  0.00    +0.026 A 
ATOM     10  C   UNL     1     -10.226   3.605 -15.582  1.00  0.00    +0.052 A 
ATOM     11  C   UNL     1      -9.995   6.454 -18.110  1.00  0.00    +0.046 C 
BRANCH   8  12
ATOM     12  N   UNL     1      -8.661   3.954 -17.449  1.00  0.00    -0.324 N 
ATOM     13  H   UNL     1      -8.792   3.918 -18.448  1.00  0.00    +0.170 HD
BRANCH  12  14
ATOM     14  C   UNL     1      -7.365   3.532 -17.167  1.00  0.00    +0.227 A 
ATOM     15  N   UNL     1      -6.321   4.370 -17.164  1.00  0.00    -0.221 NA
ATOM     16  N   UNL     1      -7.249   2.218 -16.909  1.00  0.00    -0.213 NA
ATOM     17  C   UNL     1      -5.114   3.850 -16.886  1.00  0.00    +0.117 A 
ATOM     18  C   UNL     1      -6.022   1.714 -16.642  1.00  0.00    +0.077 A 
ATOM     19  C   UNL     1      -4.905   2.522 -16.616  1.00  0.00    +0.049 A 
BRANCH  18  20
ATOM     20  C   UNL     1      -5.977   0.266 -16.372  1.00  0.00    +0.019 A 
ATOM     21  C   UNL     1      -4.874  -0.518 -16.742  1.00  0.00    +0.013 A 
ATOM     22  C   UNL     1      -7.011  -0.418 -15.729  1.00  0.00    +0.121 A 
ATOM     23  C   UNL     1      -4.851  -1.889 -16.484  1.00  0.00    +0.021 A 
ATOM     24  N   UNL     1      -7.027  -1.750 -15.468  1.00  0.00    -0.264 NA
ATOM     25  C   UNL     1      -5.944  -2.454 -15.852  1.00  0.00    +0.111 A 
ENDBRANCH  18  20
ENDBRANCH  12  14
ENDBRANCH   8  12
ENDBRANCH   1   5
BRANCH   2  26
ATOM     26  C   UNL     1     -13.025   2.034 -12.061  1.00  0.00    +0.040 A 
ATOM     27  C   UNL     1     -14.203   1.866 -11.322  1.00  0.00    +0.014 A 
ATOM     28  C   UNL     1     -11.875   1.323 -11.703  1.00  0.00    +0.014 A 
ATOM     29  C   UNL     1     -14.215   1.014 -10.215  1.00  0.00    +0.006 A 
ATOM     30  C   UNL     1     -11.889   0.472 -10.596  1.00  0.00    +0.006 A 
ATOM     31  C   UNL     1     -13.059   0.314  -9.837  1.00  0.00    -0.034 A 
BRANCH  31  32
ATOM     32  C   UNL     1     -13.080  -0.615  -8.639  1.00  0.00    +0.120 C 
BRANCH  32  33
ATOM     33  N   UNL     1     -12.905  -2.035  -9.003  1.00  0.00    -0.297 NA
ATOM     34  C   UNL     1     -14.071  -2.562  -9.742  1.00  0.00    +0.100 C 
ATOM     35  C   UNL     1     -12.709  -2.858  -7.785  1.00  0.00    +0.100 C 
ATOM     36  C   UNL     1     -15.393  -2.652  -8.933  1.00  0.00    +0.099 C 
ATOM     37  C   UNL     1     -13.983  -3.494  -7.160  1.00  0.00    +0.099 C 
ATOM     38  N   UNL     1     -15.206  -2.744  -7.473  1.00  0.00    -0.304 NA
ATOM     39  C   UNL     1     -16.378  -3.313  -6.820  1.00  0.00    +0.105 C 
ENDBRANCH  32  33
ENDBRANCH  31  32
ENDBRANCH   2  26
TORSDOF 7
ENDMDL
MODEL 2
REMARK VINA RESULT:    -9.722      3.377      8.245
REMARK INTER + INTRA:         -14.684
REMARK INTER:                 -13.831
REMARK INTRA:                  -0.853
REMARK UNBOUND:                -0.984
REMARK SMILES Cc1ccc(NC(=O)c2ccc(CN3CCN(C)CC3)cc2)cc1Nc1nccc(-c2cccnc2)n1
REMARK SMILES IDX 6 1 7 2 8 3 5 5 2 6 3 7 24 8 4 9 23 10 1 11 25 12 26 14
REMARK SMILES IDX 27 15 37 16 28 17 30 18 29 19 31 20 32 21 36 22 33 23 35 24
REMARK SMILES IDX 34 25 9 26 10 27 22 28 11 29 21 30 12 31 13 32 14 33 15 34
REMARK SMILES IDX 20 35 16 36 19 37 17 38 18 39
REMARK H PARENT 6 4 25 13
ROOT
ATOM      1  N   UNL     1      -7.299   2.166 -16.421  1.00  0.00    -0.322 N 
ATOM      2  C   UNL     1      -6.837   1.240 -17.338  1.00  0.00    +0.255 C 
ATOM      3  O   UNL     1      -6.817   1.357 -18.557  1.00  0.00    -0.269 OA
ATOM      4  H   UNL     1      -7.122   1.974 -15.443  1.00  0.00    +0.170 HD
ENDROOT
BRANCH   1   5
ATOM      5  C   UNL     1      -7.919   3.405 -16.689  1.00  0.00    +0.043 A 
ATOM      6  C   UNL     1      -9.311   5.815 -17.118  1.00  0.00    -0.027 A 
ATOM      7  C   UNL     1      -8.086   5.561 -17.757  1.00  0.00    +0.008 A 
ATOM      8  C   UNL     1      -9.860   4.853 -16.240  1.00  0.00    +0.046 A 
ATOM      9  C   UNL     1      -7.397   4.366 -17.544  1.00  0.00    +0.026 A 
ATOM     10  C   UNL     1      -9.144   3.658 -16.050  1.00  0.00    +0.052 A 
ATOM     11  C   UNL     1     -10.002   7.123 -17.399  1.00  0.00    +0.046 C 
BRANCH   8  12
ATOM     12  N   UNL     1     -11.089   5.102 -15.610  1.00  0.00    -0.324 N 
ATOM     13  H   UNL     1     -11.502   6.011 -15.751  1.00  0.00    +0.170 HD
BRANCH  12  14
ATOM     14  C   UNL     1     -11.918   4.377 -14.759  1.00  0.00    +0.227 A 
ATOM     15  N   UNL     1     -13.137   4.805 -14.408  1.00  0.00    -0.221 NA
ATOM     16  N   UNL     1     -11.391   3.224 -14.315  1.00  0.00    -0.213 NA
ATOM     17  C   UNL     1     -13.846   4.027 -13.574  1.00  0.00    +0.117 A 
ATOM     18  C   UNL     1     -12.119   2.461 -13.467  1.00  0.00    +0.077 A 
ATOM     19  C   UNL     1     -13.385   2.838 -13.069  1.00  0.00    +0.049 A 
BRANCH  18  20
ATOM     20  C   UNL     1     -11.473   1.213 -13.023  1.00  0.00    +0.019 A 
ATOM     21  C   UNL     1     -11.552   0.776 -11.692  1.00  0.00    +0.013 A 
ATOM     22  C   UNL     1     -10.752   0.385 -13.885  1.00  0.00    +0.121 A 
ATOM     23  C   UNL     1     -10.928  -0.404 -11.288  1.00  0.00    +0.021 A 
ATOM     24  N   UNL     1     -10.126  -0.766 -13.527  1.00  0.00    -0.264 NA
ATOM     25  C   UNL     1     -10.231  -1.133 -12.234  1.00  0.00    +0.111 A 
ENDBRANCH  18  20
ENDBRANCH  12  14
ENDBRANCH   8  12
ENDBRANCH   1   5
BRANCH   2  26
ATOM     26  C   UNL     1      -6.272  -0.003 -16.739  1.00  0.00    +0.040 A 
ATOM     27  C   UNL     1      -5.190  -0.675 -17.320  1.00  0.00    +0.014 A 
ATOM     28  C   UNL     1      -6.830  -0.485 -15.550  1.00  0.00    +0.014 A 
ATOM     29  C   UNL     1      -4.694  -1.840 -16.728  1.00  0.00    +0.006 A 
ATOM     30  C   UNL     1      -6.334  -1.649 -14.961  1.00  0.00    +0.006 A 
ATOM     31  C   UNL     1      -5.264  -2.342 -15.548  1.00  0.00    -0.034 A 
BRANCH  31  32
ATOM     32  C   UNL     1      -4.716  -3.602 -14.906  1.00  0.00    +0.120 C 
BRANCH  32  33
ATOM     33  N   UNL     1      -5.772  -4.490 -14.379  1.00  0.00    -0.297 NA
ATOM     34  C   UNL     1      -5.286  -5.318 -13.256  1.00  0.00    +0.100 C 
ATOM     35  C   UNL     1      -6.266  -5.391 -15.448  1.00  0.00    +0.100 C 
ATOM     36  C   UNL     1      -4.203  -6.370 -13.617  1.00  0.00    +0.099 C 
ATOM     37  C   UNL     1      -5.581  -6.783 -15.561  1.00  0.00    +0.099 C 
ATOM     38  N   UNL     1      -4.210  -6.786 -15.033  1.00  0.00    -0.304 NA
ATOM     39  C   UNL     1      -3.559  -8.078 -15.212  1.00  0.00    +0.105 C 
ENDBRANCH  32  33
ENDBRANCH  31  32
ENDBRANCH   2  26
TORSDOF 7
ENDMDL
MODEL 3
REMARK VINA RESULT:    -9.643      1.221      1.760
REMARK INTER + INTRA:         -14.573
REMARK INTER:                 -13.560
REMARK INTRA:                  -1.014
REMARK UNBOUND:                -0.984
REMARK SMILES Cc1ccc(NC(=O)c2ccc(CN3CCN(C)CC3)cc2)cc1Nc1nccc(-c2cccnc2)n1
REMARK SMILES IDX 6 1 7 2 8 3 5 5 2 6 3 7 24 8 4 9 23 10 1 11 25 12 26 14
REMARK SMILES IDX 27 15 37 16 28 17 30 18 29 19 31 20 32 21 36 22 33 23 35 24
REMARK SMILES IDX 34 25 9 26 10 27 22 28 11 29 21 30 12 31 13 32 14 33 15 34
REMARK SMILES IDX 20 35 16 36 19 37 17 38 18 39
REMARK H PARENT 6 4 25 13
ROOT
ATOM      1  N   UNL     1     -11.466   2.993 -13.627  1.00  0.00    -0.322 N 
ATOM      2  C   UNL     1     -12.778   2.714 -13.292  1.00  0.00    +0.255 C 
ATOM      3  O   UNL     1     -13.782   3.040 -13.914  1.00  0.00    -0.269 OA
ATOM      4  H   UNL     1     -10.744   2.536 -13.083  1.00  0.00    +0.170 HD
ENDROOT
BRANCH   1   5
ATOM      5  C   UNL     1     -11.002   3.778 -14.704  1.00  0.00    +0.043 A 
ATOM      6  C   UNL     1      -9.926   5.218 -16.871  1.00  0.00    -0.027 A 
ATOM      7  C   UNL     1     -11.025   5.710 -16.147  1.00  0.00    +0.008 A 
ATOM      8  C   UNL     1      -9.347   3.978 -16.516  1.00  0.00    +0.046 A 
ATOM      9  C   UNL     1     -11.557   4.996 -15.072  1.00  0.00    +0.026 A 
ATOM     10  C   UNL     1      -9.903   3.286 -15.427  1.00  0.00    +0.052 A 
ATOM     11  C   UNL     1      -9.400   6.044 -18.015  1.00  0.00    +0.046 C 
BRANCH   8  12
ATOM     12  N   UNL     1      -8.243   3.491 -17.232  1.00  0.00    -0.324 N 
ATOM     13  H   UNL     1      -7.929   4.038 -18.019  1.00  0.00    +0.170 HD
BRANCH  12  14
ATOM     14  C   UNL     1      -7.442   2.357 -17.146  1.00  0.00    +0.227 A 
ATOM     15  N   UNL     1      -6.586   2.006 -18.113  1.00  0.00    -0.221 NA
ATOM     16  N   UNL     1      -7.605   1.643 -16.019  1.00  0.00    -0.213 NA
ATOM     17  C   UNL     1      -5.869   0.886 -17.926  1.00  0.00    +0.117 A 
ATOM     18  C   UNL     1      -6.880   0.512 -15.855  1.00  0.00    +0.077 A 
ATOM     19  C   UNL     1      -5.976   0.096 -16.810  1.00  0.00    +0.049 A 
BRANCH  18  20
ATOM     20  C   UNL     1      -7.117  -0.216 -14.597  1.00  0.00    +0.019 A 
ATOM     21  C   UNL     1      -8.161   0.134 -13.727  1.00  0.00    +0.013 A 
ATOM     22  C   UNL     1      -6.333  -1.298 -14.189  1.00  0.00    +0.121 A 
ATOM     23  C   UNL     1      -8.365  -0.563 -12.537  1.00  0.00    +0.021 A 
ATOM     24  N   UNL     1      -6.498  -1.995 -13.036  1.00  0.00    -0.264 NA
ATOM     25  C   UNL     1      -7.513  -1.610 -12.237  1.00  0.00    +0.111 A 
ENDBRANCH  18  20
ENDBRANCH  12  14
ENDBRANCH   8  12
ENDBRANCH   1   5
BRANCH   2  26
ATOM     26  C   UNL     1     -12.946   1.889 -12.061  1.00  0.00    +0.040 A 
ATOM     27  C   UNL     1     -14.156   1.855 -11.357  1.00  0.00    +0.014 A 
ATOM     28  C   UNL     1     -11.866   1.116 -11.623  1.00  0.00    +0.014 A 
ATOM     29  C   UNL     1     -14.269   1.073 -10.204  1.00  0.00    +0.006 A 
ATOM     30  C   UNL     1     -11.981   0.335 -10.471  1.00  0.00    +0.006 A 
ATOM     31  C   UNL     1     -13.183   0.311  -9.746  1.00  0.00    -0.034 A 
BRANCH  31  32
ATOM     32  C   UNL     1     -13.314  -0.542  -8.499  1.00  0.00    +0.120 C 
BRANCH  32  33
ATOM     33  N   UNL     1     -13.151  -1.985  -8.764  1.00  0.00    -0.297 NA
ATOM     34  C   UNL     1     -14.308  -2.544  -9.494  1.00  0.00    +0.100 C 
ATOM     35  C   UNL     1     -12.996  -2.727  -7.489  1.00  0.00    +0.100 C 
ATOM     36  C   UNL     1     -15.649  -2.562  -8.713  1.00  0.00    +0.099 C 
ATOM     37  C   UNL     1     -14.293  -3.303  -6.854  1.00  0.00    +0.099 C 
ATOM     38  N   UNL     1     -15.497  -2.559  -7.245  1.00  0.00    -0.304 NA
ATOM     39  C   UNL     1     -16.693  -3.068  -6.585  1.00  0.00    +0.105 C 
ENDBRANCH  32  33
ENDBRANCH  31  32
ENDBRANCH   2  26
TORSDOF 7
ENDMDL
MODEL 4
REMARK VINA RESULT:    -9.562      1.186      1.761
REMARK INTER + INTRA:         -14.459
REMARK INTER:                 -13.477
REMARK INTRA:                  -0.982
REMARK UNBOUND:                -0.984
REMARK SMILES Cc1ccc(NC(=O)c2ccc(CN3CCN(C)CC3)cc2)cc1Nc1nccc(-c2cccnc2)n1
REMARK SMILES IDX 6 1 7 2 8 3 5 5 2 6 3 7 24 8 4 9 23 10 1 11 25 12 26 14
REMARK SMILES IDX 27 15 37 16 28 17 30 18 29 19 31 20 32 21 36 22 33 23 35 24
REMARK SMILES IDX 34 25 9 26 10 27 22 28 11 29 21 30 12 31 13 32 14 33 15 34
REMARK SMILES IDX 20 35 16 36 19 37 17 38 18 39
REMARK H PARENT 6 4 25 13
ROOT
ATOM      1  N   UNL     1     -11.651   3.067 -13.656  1.00  0.00    -0.322 N 
ATOM      2  C   UNL     1     -12.948   2.835 -13.237  1.00  0.00    +0.255 C 
ATOM      3  O   UNL     1     -13.977   3.231 -13.771  1.00  0.00    -0.269 OA
ATOM      4  H   UNL     1     -10.915   2.558 -13.183  1.00  0.00    +0.170 HD
ENDROOT
BRANCH   1   5
ATOM      5  C   UNL     1     -11.227   3.873 -14.735  1.00  0.00    +0.043 A 
ATOM      6  C   UNL     1     -10.234   5.353 -16.914  1.00  0.00    -0.027 A 
ATOM      7  C   UNL     1     -11.301   5.834 -16.136  1.00  0.00    +0.008 A 
ATOM      8  C   UNL     1      -9.646   4.105 -16.607  1.00  0.00    +0.046 A 
ATOM      9  C   UNL     1     -11.792   5.100 -15.056  1.00  0.00    +0.026 A 
ATOM     10  C   UNL     1     -10.160   3.392 -15.510  1.00  0.00    +0.052 A 
ATOM     11  C   UNL     1      -9.750   6.201 -18.061  1.00  0.00    +0.046 C 
BRANCH   8  12
ATOM     12  N   UNL     1      -8.572   3.630 -17.376  1.00  0.00    -0.324 N 
ATOM     13  H   UNL     1      -8.737   3.499 -18.362  1.00  0.00    +0.170 HD
BRANCH  12  14
ATOM     14  C   UNL     1      -7.267   3.236 -17.099  1.00  0.00    +0.227 A 
ATOM     15  N   UNL     1      -6.243   4.098 -17.089  1.00  0.00    -0.221 NA
ATOM     16  N   UNL     1      -7.120   1.923 -16.852  1.00  0.00    -0.213 NA
ATOM     17  C   UNL     1      -5.024   3.605 -16.816  1.00  0.00    +0.117 A 
ATOM     18  C   UNL     1      -5.882   1.446 -16.590  1.00  0.00    +0.077 A 
ATOM     19  C   UNL     1      -4.783   2.280 -16.558  1.00  0.00    +0.049 A 
BRANCH  18  20
ATOM     20  C   UNL     1      -5.802  -0.003 -16.332  1.00  0.00    +0.019 A 
ATOM     21  C   UNL     1      -4.707  -0.768 -16.760  1.00  0.00    +0.013 A 
ATOM     22  C   UNL     1      -6.794  -0.706 -15.646  1.00  0.00    +0.121 A 
ATOM     23  C   UNL     1      -4.651  -2.140 -16.513  1.00  0.00    +0.021 A 
ATOM     24  N   UNL     1      -6.778  -2.039 -15.393  1.00  0.00    -0.264 NA
ATOM     25  C   UNL     1      -5.704  -2.725 -15.833  1.00  0.00    +0.111 A 
ENDBRANCH  18  20
ENDBRANCH  12  14
ENDBRANCH   8  12
ENDBRANCH   1   5
BRANCH   2  26
ATOM     26  C   UNL     1     -13.067   1.971 -12.027  1.00  0.00    +0.040 A 
ATOM     27  C   UNL     1     -11.979   1.242 -11.533  1.00  0.00    +0.014 A 
ATOM     28  C   UNL     1     -14.298   1.916 -11.364  1.00  0.00    +0.014 A 
ATOM     29  C   UNL     1     -12.135   0.440 -10.399  1.00  0.00    +0.006 A 
ATOM     30  C   UNL     1     -14.452   1.114 -10.232  1.00  0.00    +0.006 A 
ATOM     31  C   UNL     1     -13.373   0.363  -9.741  1.00  0.00    -0.034 A 
BRANCH  31  32
ATOM     32  C   UNL     1     -13.535  -0.503  -8.506  1.00  0.00    +0.120 C 
BRANCH  32  33
ATOM     33  N   UNL     1     -14.044   0.242  -7.339  1.00  0.00    -0.297 NA
ATOM     34  C   UNL     1     -13.071   0.257  -6.227  1.00  0.00    +0.100 C 
ATOM     35  C   UNL     1     -15.306  -0.367  -6.852  1.00  0.00    +0.100 C 
ATOM     36  C   UNL     1     -12.786  -1.119  -5.566  1.00  0.00    +0.099 C 
ATOM     37  C   UNL     1     -15.178  -1.433  -5.727  1.00  0.00    +0.099 C 
ATOM     38  N   UNL     1     -13.872  -2.105  -5.726  1.00  0.00    -0.304 NA
ATOM     39  C   UNL     1     -13.796  -3.151  -4.713  1.00  0.00    +0.105 C 
ENDBRANCH  32  33
ENDBRANCH  31  32
ENDBRANCH   2  26
TORSDOF 7
ENDMDL
MODEL 5
REMARK VINA RESULT:    -9.483      2.036      2.868
REMARK INTER + INTRA:         -14.348
REMARK INTER:                 -13.901
REMARK INTRA:                  -0.447
REMARK UNBOUND:                -0.984
REMARK SMILES Cc1ccc(NC(=O)c2ccc(CN3CCN(C)CC3)cc2)cc1Nc1nccc(-c2cccnc2)n1
REMARK SMILES IDX 6 1 7 2 8 3 5 5 2 6 3 7 24 8 4 9 23 10 1 11 25 12 26 14
REMARK SMILES IDX 27 15 37 16 28 17 30 18 29 19 31 20 32 21 36 22 33 23 35 24
REMARK SMILES IDX 34 25 9 26 10 27 22 28 11 29 21 30 12 31 13 32 14 33 15 34
REMARK SMILES IDX 20 35 16 36 19 37 17 38 18 39
REMARK H PARENT 6 4 25 13
ROOT
ATOM      1  N   UNL     1     -10.838   2.894 -14.262  1.00  0.00    -0.322 N 
ATOM      2  C   UNL     1     -12.130   3.085 -13.807  1.00  0.00    +0.255 C 
ATOM      3  O   UNL     1     -12.989   3.800 -14.308  1.00  0.00    -0.269 OA
ATOM      4  H   UNL     1     -10.294   2.166 -13.815  1.00  0.00    +0.170 HD
ENDROOT
BRANCH   1   5
ATOM      5  C   UNL     1     -10.204   3.539 -15.345  1.00  0.00    +0.043 A 
ATOM      6  C   UNL     1      -8.802   4.684 -17.502  1.00  0.00    -0.027 A 
ATOM      7  C   UNL     1      -9.903   5.338 -16.923  1.00  0.00    +0.008 A 
ATOM      8  C   UNL     1      -8.386   3.429 -17.003  1.00  0.00    +0.046 A 
ATOM      9  C   UNL     1     -10.596   4.770 -15.854  1.00  0.00    +0.026 A 
ATOM     10  C   UNL     1      -9.103   2.886 -15.922  1.00  0.00    +0.052 A 
ATOM     11  C   UNL     1      -8.096   5.359 -18.649  1.00  0.00    +0.046 C 
BRANCH   8  12
ATOM     12  N   UNL     1      -7.280   2.781 -17.573  1.00  0.00    -0.324 N 
ATOM     13  H   UNL     1      -6.842   3.229 -18.363  1.00  0.00    +0.170 HD
BRANCH  12  14
ATOM     14  C   UNL     1      -6.612   1.585 -17.330  1.00  0.00    +0.227 A 
ATOM     15  N   UNL     1      -7.174   0.573 -16.657  1.00  0.00    -0.221 NA
ATOM     16  N   UNL     1      -5.361   1.534 -17.817  1.00  0.00    -0.213 NA
ATOM     17  C   UNL     1      -6.433  -0.532 -16.474  1.00  0.00    +0.117 A 
ATOM     18  C   UNL     1      -4.629   0.415 -17.613  1.00  0.00    +0.077 A 
ATOM     19  C   UNL     1      -5.147  -0.668 -16.932  1.00  0.00    +0.049 A 
BRANCH  18  20
ATOM     20  C   UNL     1      -3.267   0.436 -18.175  1.00  0.00    +0.019 A 
ATOM     21  C   UNL     1      -2.869  -0.461 -19.178  1.00  0.00    +0.013 A 
ATOM     22  C   UNL     1      -2.290   1.344 -17.760  1.00  0.00    +0.121 A 
ATOM     23  C   UNL     1      -1.574  -0.429 -19.694  1.00  0.00    +0.021 A 
ATOM     24  N   UNL     1      -1.019   1.400 -18.233  1.00  0.00    -0.264 NA
ATOM     25  C   UNL     1      -0.692   0.510 -19.191  1.00  0.00    +0.111 A 
ENDBRANCH  18  20
ENDBRANCH  12  14
ENDBRANCH   8  12
ENDBRANCH   1   5
BRANCH   2  26
ATOM     26  C   UNL     1     -12.491   2.284 -12.603  1.00  0.00    +0.040 A 
ATOM     27  C   UNL     1     -13.757   2.375 -12.010  1.00  0.00    +0.014 A 
ATOM     28  C   UNL     1     -11.540   1.404 -12.075  1.00  0.00    +0.014 A 
ATOM     29  C   UNL     1     -14.053   1.611 -10.879  1.00  0.00    +0.006 A 
ATOM     30  C   UNL     1     -11.838   0.642 -10.944  1.00  0.00    +0.006 A 
ATOM     31  C   UNL     1     -13.096   0.742 -10.330  1.00  0.00    -0.034 A 
BRANCH  31  32
ATOM     32  C   UNL     1     -13.426  -0.091  -9.107  1.00  0.00    +0.120 C 
BRANCH  32  33
ATOM     33  N   UNL     1     -14.535  -1.039  -9.332  1.00  0.00    -0.297 NA
ATOM     34  C   UNL     1     -15.344  -1.240  -8.112  1.00  0.00    +0.100 C 
ATOM     35  C   UNL     1     -14.006  -2.354  -9.769  1.00  0.00    +0.100 C 
ATOM     36  C   UNL     1     -14.619  -1.948  -6.936  1.00  0.00    +0.099 C 
ATOM     37  C   UNL     1     -13.743  -3.405  -8.654  1.00  0.00    +0.099 C 
ATOM     38  N   UNL     1     -13.481  -2.793  -7.345  1.00  0.00    -0.304 NA
ATOM     39  C   UNL     1     -13.166  -3.790  -6.329  1.00  0.00    +0.105 C 
ENDBRANCH  32  33
ENDBRANCH  31  32
ENDBRANCH   2  26
TORSDOF 7
ENDMDL
MODEL 6
REMARK VINA RESULT:    -9.394      2.364      5.831
REMARK INTER + INTRA:         -14.222
REMARK INTER:                 -13.551
REMARK INTRA:                  -0.671
REMARK UNBOUND:                -0.984
REMARK SMILES Cc1ccc(NC(=O)c2ccc(CN3CCN(C)CC3)cc2)cc1Nc1nccc(-c2cccnc2)n1
REMARK SMILES IDX 6 1 7 2 8 3 5 5 2 6 3 7 24 8 4 9 23 10 1 11 25 12 26 14
REMARK SMILES IDX 27 15 37 16 28 17 30 18 29 19 31 20 32 21 36 22 33 23 35 24
REMARK SMILES IDX 34 25 9 26 10 27 22 28 11 29 21 30 12 31 13 32 14 33 15 34
REMARK SMILES IDX 20 35 16 36 19 37 17 38 18 39
REMARK H PARENT 6 4 25 13
ROOT
ATOM      1  N   UNL     1      -8.908   0.623 -12.765  1.00  0.00    -0.322 N 
ATOM      2  C   UNL     1      -9.994  -0.180 -13.061  1.00  0.00    +0.255 C 
ATOM      3  O   UNL     1     -10.282  -0.658 -14.151  1.00  0.00    -0.269 OA
ATOM      4  H   UNL     1      -8.736   0.825 -11.788  1.00  0.00    +0.170 HD
ENDROOT
BRANCH   1   5
ATOM      5  C   UNL     1      -7.946   1.132 -13.663  1.00  0.00    +0.043 A 
ATOM      6  C   UNL     1      -6.171   2.243 -15.545  1.00  0.00    -0.027 A 
ATOM      7  C   UNL     1      -5.733   1.290 -14.610  1.00  0.00    +0.008 A 
ATOM      8  C   UNL     1      -7.521   2.659 -15.548  1.00  0.00    +0.046 A 
ATOM      9  C   UNL     1      -6.614   0.740 -13.678  1.00  0.00    +0.026 A 
ATOM     10  C   UNL     1      -8.384   2.083 -14.599  1.00  0.00    +0.052 A 
ATOM     11  C   UNL     1      -5.167   2.789 -16.527  1.00  0.00    +0.046 C 
BRANCH   8  12
ATOM     12  N   UNL     1      -7.962   3.602 -16.489  1.00  0.00    -0.324 N 
ATOM     13  H   UNL     1      -7.361   3.775 -17.281  1.00  0.00    +0.170 HD
BRANCH  12  14
ATOM     14  C   UNL     1      -9.071   4.435 -16.597  1.00  0.00    +0.227 A 
ATOM     15  N   UNL     1     -10.119   4.346 -15.769  1.00  0.00    -0.221 NA
ATOM     16  N   UNL     1      -9.005   5.325 -17.602  1.00  0.00    -0.213 NA
ATOM     17  C   UNL     1     -11.138   5.197 -15.972  1.00  0.00    +0.117 A 
ATOM     18  C   UNL     1     -10.048   6.166 -17.794  1.00  0.00    +0.077 A 
ATOM     19  C   UNL     1     -11.157   6.133 -16.975  1.00  0.00    +0.049 A 
BRANCH  18  20
ATOM     20  C   UNL     1      -9.902   7.110 -18.916  1.00  0.00    +0.019 A 
ATOM     21  C   UNL     1      -9.435   8.419 -18.722  1.00  0.00    +0.013 A 
ATOM     22  C   UNL     1     -10.208   6.771 -20.236  1.00  0.00    +0.121 A 
ATOM     23  C   UNL     1      -9.310   9.301 -19.795  1.00  0.00    +0.021 A 
ATOM     24  N   UNL     1     -10.106   7.603 -21.303  1.00  0.00    -0.264 NA
ATOM     25  C   UNL     1      -9.657   8.850 -21.056  1.00  0.00    +0.111 A 
ENDBRANCH  18  20
ENDBRANCH  12  14
ENDBRANCH   8  12
ENDBRANCH   1   5
BRANCH   2  26
ATOM     26  C   UNL     1     -10.860  -0.513 -11.893  1.00  0.00    +0.040 A 
ATOM     27  C   UNL     1     -10.956  -1.818 -11.395  1.00  0.00    +0.014 A 
ATOM     28  C   UNL     1     -11.570   0.520 -11.272  1.00  0.00    +0.014 A 
ATOM     29  C   UNL     1     -11.784  -2.087 -10.302  1.00  0.00    +0.006 A 
ATOM     30  C   UNL     1     -12.397   0.249 -10.180  1.00  0.00    +0.006 A 
ATOM     31  C   UNL     1     -12.517  -1.059  -9.688  1.00  0.00    -0.034 A 
BRANCH  31  32
ATOM     32  C   UNL     1     -13.407  -1.356  -8.497  1.00  0.00    +0.120 C 
BRANCH  32  33
ATOM     33  N   UNL     1     -14.844  -1.189  -8.791  1.00  0.00    -0.297 NA
ATOM     34  C   UNL     1     -15.471  -0.174  -7.919  1.00  0.00    +0.100 C 
ATOM     35  C   UNL     1     -15.559  -2.475  -8.606  1.00  0.00    +0.100 C 
ATOM     36  C   UNL     1     -15.545  -0.539  -6.411  1.00  0.00    +0.099 C 
ATOM     37  C   UNL     1     -16.191  -2.728  -7.208  1.00  0.00    +0.099 C 
ATOM     38  N   UNL     1     -15.513  -1.988  -6.135  1.00  0.00    -0.304 NA
ATOM     39  C   UNL     1     -16.072  -2.293  -4.824  1.00  0.00    +0.105 C 
ENDBRANCH  32  33
ENDBRANCH  31  32
ENDBRANCH   2  26
TORSDOF 7
ENDMDL
MODEL 7
REMARK VINA RESULT:    -9.364      1.941      5.255
REMARK INTER + INTRA:         -14.180
REMARK INTER:                 -13.136
REMARK INTRA:                  -1.045
REMARK UNBOUND:                -0.984
REMARK SMILES Cc1ccc(NC(=O)c2ccc(CN3CCN(C)CC3)cc2)cc1Nc1nccc(-c2cccnc2)n1
REMARK SMILES IDX 6 1 7 2 8 3 5 5 2 6 3 7 24 8 4 9 23 10 1 11 25 12 26 14
REMARK SMILES IDX 27 15 37 16 28 17 30 18 29 19 31 20 32 21 36 22 33 23 35 24
REMARK SMILES IDX 34 25 9 26 10 27 22 28 11 29 21 30 12 31 13 32 14 33 15 34
REMARK SMILES IDX 20 35 16 36 19 37 17 38 18 39
REMARK H PARENT 6 4 25 13
ROOT
ATOM      1  N   UNL     1      -8.670   0.318 -12.830  1.00  0.00    -0.322 N 
ATOM      2  C   UNL     1      -9.930  -0.175 -13.117  1.00  0.00    +0.255 C 
ATOM      3  O   UNL     1     -10.385  -0.434 -14.224  1.00  0.00    -0.269 OA
ATOM      4  H   UNL     1      -8.398   0.350 -11.855  1.00  0.00    +0.170 HD
ENDROOT
BRANCH   1   5
ATOM      5  C   UNL     1      -7.669   0.704 -13.747  1.00  0.00    +0.043 A 
ATOM      6  C   UNL     1      -5.806   1.589 -15.663  1.00  0.00    -0.027 A 
ATOM      7  C   UNL     1      -5.473   0.587 -14.737  1.00  0.00    +0.008 A 
ATOM      8  C   UNL     1      -7.093   2.171 -15.639  1.00  0.00    +0.046 A 
ATOM      9  C   UNL     1      -6.397   0.149 -13.787  1.00  0.00    +0.026 A 
ATOM     10  C   UNL     1      -8.003   1.705 -14.674  1.00  0.00    +0.052 A 
ATOM     11  C   UNL     1      -4.761   2.009 -16.665  1.00  0.00    +0.046 C 
BRANCH   8  12
ATOM     12  N   UNL     1      -7.431   3.164 -16.572  1.00  0.00    -0.324 N 
ATOM     13  H   UNL     1      -6.845   3.244 -17.389  1.00  0.00    +0.170 HD
BRANCH  12  14
ATOM     14  C   UNL     1      -8.410   4.149 -16.643  1.00  0.00    +0.227 A 
ATOM     15  N   UNL     1      -8.260   5.260 -17.376  1.00  0.00    -0.221 NA
ATOM     16  N   UNL     1      -9.510   3.897 -15.913  1.00  0.00    -0.213 NA
ATOM     17  C   UNL     1      -9.268   6.147 -17.364  1.00  0.00    +0.117 A 
ATOM     18  C   UNL     1     -10.509   4.810 -15.908  1.00  0.00    +0.077 A 
ATOM     19  C   UNL     1     -10.423   5.973 -16.644  1.00  0.00    +0.049 A 
BRANCH  18  20
ATOM     20  C   UNL     1     -11.679   4.463 -15.082  1.00  0.00    +0.019 A 
ATOM     21  C   UNL     1     -11.572   3.611 -13.972  1.00  0.00    +0.013 A 
ATOM     22  C   UNL     1     -12.960   4.958 -15.337  1.00  0.00    +0.121 A 
ATOM     23  C   UNL     1     -12.692   3.289 -13.206  1.00  0.00    +0.021 A 
ATOM     24  N   UNL     1     -14.073   4.662 -14.619  1.00  0.00    -0.264 NA
ATOM     25  C   UNL     1     -13.911   3.833 -13.568  1.00  0.00    +0.111 A 
ENDBRANCH  18  20
ENDBRANCH  12  14
ENDBRANCH   8  12
ENDBRANCH   1   5
BRANCH   2  26
ATOM     26  C   UNL     1     -10.779  -0.447 -11.922  1.00  0.00    +0.040 A 
ATOM     27  C   UNL     1     -10.837  -1.716 -11.333  1.00  0.00    +0.014 A 
ATOM     28  C   UNL     1     -11.514   0.607 -11.371  1.00  0.00    +0.014 A 
ATOM     29  C   UNL     1     -11.651  -1.930 -10.217  1.00  0.00    +0.006 A 
ATOM     30  C   UNL     1     -12.327   0.392 -10.256  1.00  0.00    +0.006 A 
ATOM     31  C   UNL     1     -12.408  -0.881  -9.672  1.00  0.00    -0.034 A 
BRANCH  31  32
ATOM     32  C   UNL     1     -13.283  -1.117  -8.456  1.00  0.00    +0.120 C 
BRANCH  32  33
ATOM     33  N   UNL     1     -14.725  -0.997  -8.748  1.00  0.00    -0.297 NA
ATOM     34  C   UNL     1     -15.439  -0.243  -7.696  1.00  0.00    +0.100 C 
ATOM     35  C   UNL     1     -15.340  -2.342  -8.862  1.00  0.00    +0.100 C 
ATOM     36  C   UNL     1     -15.502  -0.929  -6.304  1.00  0.00    +0.099 C 
ATOM     37  C   UNL     1     -15.966  -2.936  -7.569  1.00  0.00    +0.099 C 
ATOM     38  N   UNL     1     -15.360  -2.397  -6.344  1.00  0.00    -0.304 NA
ATOM     39  C   UNL     1     -15.909  -3.018  -5.145  1.00  0.00    +0.105 C 
ENDBRANCH  32  33
ENDBRANCH  31  32
ENDBRANCH   2  26
TORSDOF 7
ENDMDL
MODEL 8
REMARK VINA RESULT:    -9.097      1.585      2.426
REMARK INTER + INTRA:         -13.805
REMARK INTER:                 -12.903
REMARK INTRA:                  -0.902
REMARK UNBOUND:                -0.984
REMARK SMILES Cc1ccc(NC(=O)c2ccc(CN3CCN(C)CC3)cc2)cc1Nc1nccc(-c2cccnc2)n1
REMARK SMILES IDX 6 1 7 2 8 3 5 5 2 6 3 7 24 8 4 9 23 10 1 11 25 12 26 14
REMARK SMILES IDX 27 15 37 16 28 17 30 18 29 19 31 20 32 21 36 22 33 23 35 24
REMARK SMILES IDX 34 25 9 26 10 27 22 28 11 29 21 30 12 31 13 32 14 33 15 34
REMARK SMILES IDX 20 35 16 36 19 37 17 38 18 39
REMARK H PARENT 6 4 25 13
ROOT
ATOM      1  N   UNL     1     -10.492   2.193 -13.789  1.00  0.00    -0.322 N 
ATOM      2  C   UNL     1     -11.644   2.739 -13.255  1.00  0.00    +0.255 C 
ATOM      3  O   UNL     1     -12.201   3.772 -13.607  1.00  0.00    -0.269 OA
ATOM      4  H   UNL     1     -10.234   1.264 -13.478  1.00  0.00    +0.170 HD
ENDROOT
BRANCH   1   5
ATOM      5  C   UNL     1      -9.665   2.741 -14.793  1.00  0.00    +0.043 A 
ATOM      6  C   UNL     1      -7.861   3.760 -16.700  1.00  0.00    -0.027 A 
ATOM      7  C   UNL     1      -9.229   4.081 -16.751  1.00  0.00    +0.008 A 
ATOM      8  C   UNL     1      -7.374   2.911 -15.681  1.00  0.00    +0.046 A 
ATOM      9  C   UNL     1     -10.121   3.575 -15.804  1.00  0.00    +0.026 A 
ATOM     10  C   UNL     1      -8.298   2.423 -14.740  1.00  0.00    +0.052 A 
ATOM     11  C   UNL     1      -6.954   4.347 -17.749  1.00  0.00    +0.046 C 
BRANCH   8  12
ATOM     12  N   UNL     1      -6.007   2.601 -15.622  1.00  0.00    -0.324 N 
ATOM     13  H   UNL     1      -5.400   3.279 -15.189  1.00  0.00    +0.170 HD
BRANCH  12  14
ATOM     14  C   UNL     1      -5.223   1.542 -16.070  1.00  0.00    +0.227 A 
ATOM     15  N   UNL     1      -4.275   1.695 -17.004  1.00  0.00    -0.221 NA
ATOM     16  N   UNL     1      -5.501   0.360 -15.496  1.00  0.00    -0.213 NA
ATOM     17  C   UNL     1      -3.585   0.601 -17.365  1.00  0.00    +0.117 A 
ATOM     18  C   UNL     1      -4.799  -0.731 -15.883  1.00  0.00    +0.077 A 
ATOM     19  C   UNL     1      -3.805  -0.645 -16.836  1.00  0.00    +0.049 A 
BRANCH  18  20
ATOM     20  C   UNL     1      -5.163  -1.991 -15.210  1.00  0.00    +0.019 A 
ATOM     21  C   UNL     1      -4.781  -3.239 -15.725  1.00  0.00    +0.013 A 
ATOM     22  C   UNL     1      -5.899  -2.031 -14.024  1.00  0.00    +0.121 A 
ATOM     23  C   UNL     1      -5.140  -4.421 -15.078  1.00  0.00    +0.021 A 
ATOM     24  N   UNL     1      -6.273  -3.160 -13.370  1.00  0.00    -0.264 NA
ATOM     25  C   UNL     1      -5.882  -4.330 -13.914  1.00  0.00    +0.111 A 
ENDBRANCH  18  20
ENDBRANCH  12  14
ENDBRANCH   8  12
ENDBRANCH   1   5
BRANCH   2  26
ATOM     26  C   UNL     1     -12.269   1.935 -12.166  1.00  0.00    +0.040 A 
ATOM     27  C   UNL     1     -11.549   0.961 -11.463  1.00  0.00    +0.014 A 
ATOM     28  C   UNL     1     -13.604   2.187 -11.832  1.00  0.00    +0.014 A 
ATOM     29  C   UNL     1     -12.175   0.226 -10.453  1.00  0.00    +0.006 A 
ATOM     30  C   UNL     1     -14.227   1.451 -10.822  1.00  0.00    +0.006 A 
ATOM     31  C   UNL     1     -13.520   0.458 -10.127  1.00  0.00    -0.034 A 
BRANCH  31  32
ATOM     32  C   UNL     1     -14.192  -0.338  -9.024  1.00  0.00    +0.120 C 
BRANCH  32  33
ATOM     33  N   UNL     1     -13.924  -1.787  -9.109  1.00  0.00    -0.297 NA
ATOM     34  C   UNL     1     -15.156  -2.561  -9.363  1.00  0.00    +0.100 C 
ATOM     35  C   UNL     1     -13.315  -2.271  -7.847  1.00  0.00    +0.100 C 
ATOM     36  C   UNL     1     -16.205  -2.547  -8.218  1.00  0.00    +0.099 C 
ATOM     37  C   UNL     1     -14.289  -2.828  -6.770  1.00  0.00    +0.099 C 
ATOM     38  N   UNL     1     -15.642  -2.267  -6.883  1.00  0.00    -0.304 NA
ATOM     39  C   UNL     1     -16.521  -2.745  -5.823  1.00  0.00    +0.105 C 
ENDBRANCH  32  33
ENDBRANCH  31  32
ENDBRANCH   2  26
TORSDOF 7
ENDMDL
MODEL 9
REMARK VINA RESULT:    -8.969      2.350      3.834
REMARK INTER + INTRA:         -13.623
REMARK INTER:                 -12.918
REMARK INTRA:                  -0.706
REMARK UNBOUND:                -0.984
REMARK SMILES Cc1ccc(NC(=O)c2ccc(CN3CCN(C)CC3)cc2)cc1Nc1nccc(-c2cccnc2)n1
REMARK SMILES IDX 6 1 7 2 8 3 5 5 2 6 3 7 24 8 4 9 23 10 1 11 25 12 26 14
REMARK SMILES IDX 27 15 37 16 28 17 30 18 29 19 31 20 32 21 36 22 33 23 35 24
REMARK SMILES IDX 34 25 9 26 10 27 22 28 11 29 21 30 12 31 13 32 14 33 15 34
REMARK SMILES IDX 20 35 16 36 19 37 17 38 18 39
REMARK H PARENT 6 4 25 13
ROOT
ATOM      1  N   UNL     1     -10.841   1.137 -13.404  1.00  0.00    -0.322 N 
ATOM      2  C   UNL     1     -11.724   2.055 -12.866  1.00  0.00    +0.255 C 
ATOM      3  O   UNL     1     -11.934   3.195 -13.263  1.00  0.00    -0.269 OA
ATOM      4  H   UNL     1     -10.883   0.192 -13.045  1.00  0.00    +0.170 HD
ENDROOT
BRANCH   1   5
ATOM      5  C   UNL     1      -9.936   1.337 -14.468  1.00  0.00    +0.043 A 
ATOM      6  C   UNL     1      -8.055   1.556 -16.552  1.00  0.00    -0.027 A 
ATOM      7  C   UNL     1      -8.877   2.640 -16.199  1.00  0.00    +0.008 A 
ATOM      8  C   UNL     1      -8.169   0.330 -15.858  1.00  0.00    +0.046 A 
ATOM      9  C   UNL     1      -9.808   2.530 -15.166  1.00  0.00    +0.026 A 
ATOM     10  C   UNL     1      -9.113   0.254 -14.819  1.00  0.00    +0.052 A 
ATOM     11  C   UNL     1      -7.067   1.747 -17.673  1.00  0.00    +0.046 C 
BRANCH   8  12
ATOM     12  N   UNL     1      -7.341  -0.749 -16.202  1.00  0.00    -0.324 N 
ATOM     13  H   UNL     1      -7.552  -1.235 -17.059  1.00  0.00    +0.170 HD
BRANCH  12  14
ATOM     14  C   UNL     1      -6.253  -1.378 -15.605  1.00  0.00    +0.227 A 
ATOM     15  N   UNL     1      -5.349  -0.713 -14.875  1.00  0.00    -0.221 NA
ATOM     16  N   UNL     1      -6.182  -2.701 -15.828  1.00  0.00    -0.213 NA
ATOM     17  C   UNL     1      -4.336  -1.422 -14.353  1.00  0.00    +0.117 A 
ATOM     18  C   UNL     1      -5.147  -3.395 -15.300  1.00  0.00    +0.077 A 
ATOM     19  C   UNL     1      -4.183  -2.773 -14.534  1.00  0.00    +0.049 A 
BRANCH  18  20
ATOM     20  C   UNL     1      -5.137  -4.839 -15.591  1.00  0.00    +0.019 A 
ATOM     21  C   UNL     1      -3.979  -5.494 -16.037  1.00  0.00    +0.013 A 
ATOM     22  C   UNL     1      -6.264  -5.650 -15.437  1.00  0.00    +0.121 A 
ATOM     23  C   UNL     1      -3.991  -6.861 -16.313  1.00  0.00    +0.021 A 
ATOM     24  N   UNL     1      -6.315  -6.981 -15.703  1.00  0.00    -0.264 NA
ATOM     25  C   UNL     1      -5.174  -7.555 -16.135  1.00  0.00    +0.111 A 
ENDBRANCH  18  20
ENDBRANCH  12  14
ENDBRANCH   8  12
ENDBRANCH   1   5
BRANCH   2  26
ATOM     26  C   UNL     1     -12.518   1.553 -11.708  1.00  0.00    +0.040 A 
ATOM     27  C   UNL     1     -13.866   1.891 -11.537  1.00  0.00    +0.014 A 
ATOM     28  C   UNL     1     -11.894   0.702 -10.790  1.00  0.00    +0.014 A 
ATOM     29  C   UNL     1     -14.572   1.402 -10.434  1.00  0.00    +0.006 A 
ATOM     30  C   UNL     1     -12.601   0.215  -9.689  1.00  0.00    +0.006 A 
ATOM     31  C   UNL     1     -13.946   0.566  -9.497  1.00  0.00    -0.034 A 
BRANCH  31  32
ATOM     32  C   UNL     1     -14.720   0.032  -8.306  1.00  0.00    +0.120 C 
BRANCH  32  33
ATOM     33  N   UNL     1     -14.190  -1.248  -7.797  1.00  0.00    -0.297 NA
ATOM     34  C   UNL     1     -14.914  -2.406  -8.359  1.00  0.00    +0.100 C 
ATOM     35  C   UNL     1     -14.298  -1.297  -6.319  1.00  0.00    +0.100 C 
ATOM     36  C   UNL     1     -16.401  -2.540  -7.930  1.00  0.00    +0.099 C 
ATOM     37  C   UNL     1     -15.582  -1.950  -5.734  1.00  0.00    +0.099 C 
ATOM     38  N   UNL     1     -16.726  -1.878  -6.652  1.00  0.00    -0.304 NA
ATOM     39  C   UNL     1     -17.937  -2.430  -6.059  1.00  0.00    +0.105 C 
ENDBRANCH  32  33
ENDBRANCH  31  32
ENDBRANCH   2  26
TORSDOF 7
ENDMDL
MODEL 10
REMARK VINA RESULT:    -8.936      2.289      5.510
REMARK INTER + INTRA:         -13.577
REMARK INTER:                 -12.463
REMARK INTRA:                  -1.114
REMARK UNBOUND:                -0.984
REMARK SMILES Cc1ccc(NC(=O)c2ccc(CN3CCN(C)CC3)cc2)cc1Nc1nccc(-c2cccnc2)n1
REMARK SMILES IDX 6 1 7 2 8 3 5 5 2 6 3 7 24 8 4 9 23 10 1 11 25 12 26 14
REMARK SMILES IDX 27 15 37 16 28 17 30 18 29 19 31 20 32 21 36 22 33 23 35 24
REMARK SMILES IDX 34 25 9 26 10 27 22 28 11 29 21 30 12 31 13 32 14 33 15 34
REMARK SMILES IDX 20 35 16 36 19 37 17 38 18 39
REMARK H PARENT 6 4 25 13
ROOT
ATOM      1  N   UNL     1      -8.609  -0.162 -13.251  1.00  0.00    -0.322 N 
ATOM      2  C   UNL     1      -9.959  -0.436 -13.137  1.00  0.00    +0.255 C 
ATOM      3  O   UNL     1     -10.774  -0.516 -14.048  1.00  0.00    -0.269 OA
ATOM      4  H   UNL     1      -8.045  -0.265 -12.416  1.00  0.00    +0.170 HD
ENDROOT
BRANCH   1   5
ATOM      5  C   UNL     1      -7.893   0.162 -14.423  1.00  0.00    +0.043 A 
ATOM      6  C   UNL     1      -6.570   0.976 -16.771  1.00  0.00    -0.027 A 
ATOM      7  C   UNL     1      -6.344  -0.294 -16.214  1.00  0.00    +0.008 A 
ATOM      8  C   UNL     1      -7.472   1.868 -16.149  1.00  0.00    +0.046 A 
ATOM      9  C   UNL     1      -7.001  -0.697 -15.050  1.00  0.00    +0.026 A 
ATOM     10  C   UNL     1      -8.121   1.431 -14.981  1.00  0.00    +0.052 A 
ATOM     11  C   UNL     1      -5.831   1.341 -18.033  1.00  0.00    +0.046 C 
BRANCH   8  12
ATOM     12  N   UNL     1      -7.706   3.132 -16.711  1.00  0.00    -0.324 N 
ATOM     13  H   UNL     1      -6.989   3.507 -17.312  1.00  0.00    +0.170 HD
BRANCH  12  14
ATOM     14  C   UNL     1      -8.728   4.072 -16.617  1.00  0.00    +0.227 A 
ATOM     15  N   UNL     1      -8.701   5.231 -17.286  1.00  0.00    -0.221 NA
ATOM     16  N   UNL     1      -9.733   3.723 -15.796  1.00  0.00    -0.213 NA
ATOM     17  C   UNL     1      -9.739   6.066 -17.112  1.00  0.00    +0.117 A 
ATOM     18  C   UNL     1     -10.764   4.584 -15.629  1.00  0.00    +0.077 A 
ATOM     19  C   UNL     1     -10.803   5.794 -16.291  1.00  0.00    +0.049 A 
BRANCH  18  20
ATOM     20  C   UNL     1     -11.826   4.132 -14.713  1.00  0.00    +0.019 A 
ATOM     21  C   UNL     1     -11.589   3.152 -13.736  1.00  0.00    +0.013 A 
ATOM     22  C   UNL     1     -13.124   4.645 -14.746  1.00  0.00    +0.121 A 
ATOM     23  C   UNL     1     -12.608   2.732 -12.882  1.00  0.00    +0.021 A 
ATOM     24  N   UNL     1     -14.142   4.256 -13.937  1.00  0.00    -0.264 NA
ATOM     25  C   UNL     1     -13.858   3.308 -13.022  1.00  0.00    +0.111 A 
ENDBRANCH  18  20
ENDBRANCH  12  14
ENDBRANCH   8  12
ENDBRANCH   1   5
BRANCH   2  26
ATOM     26  C   UNL     1     -10.428  -0.697 -11.745  1.00  0.00    +0.040 A 
ATOM     27  C   UNL     1      -9.844  -1.686 -10.945  1.00  0.00    +0.014 A 
ATOM     28  C   UNL     1     -11.461   0.092 -11.230  1.00  0.00    +0.014 A 
ATOM     29  C   UNL     1     -10.317  -1.902  -9.648  1.00  0.00    +0.006 A 
ATOM     30  C   UNL     1     -11.933  -0.125  -9.933  1.00  0.00    +0.006 A 
ATOM     31  C   UNL     1     -11.369  -1.129  -9.131  1.00  0.00    -0.034 A 
BRANCH  31  32
ATOM     32  C   UNL     1     -11.873  -1.362  -7.720  1.00  0.00    +0.120 C 
BRANCH  32  33
ATOM     33  N   UNL     1     -12.988  -0.470  -7.348  1.00  0.00    -0.297 NA
ATOM     34  C   UNL     1     -12.547   0.620  -6.453  1.00  0.00    +0.100 C 
ATOM     35  C   UNL     1     -14.055  -1.239  -6.662  1.00  0.00    +0.100 C 
ATOM     36  C   UNL     1     -12.072   0.179  -5.042  1.00  0.00    +0.099 C 
ATOM     37  C   UNL     1     -13.987  -1.295  -5.110  1.00  0.00    +0.099 C 
ATOM     38  N   UNL     1     -12.625  -1.113  -4.592  1.00  0.00    -0.304 NA
ATOM     39  C   UNL     1     -12.570  -1.240  -3.141  1.00  0.00    +0.105 C 
ENDBRANCH  32  33
ENDBRANCH  31  32
ENDBRANCH   2  26
TORSDOF 7
ENDMDL
