MODEL 1
REMARK VINA RESULT:    -8.768      0.000      0.000
REMARK INTER + INTRA:         -12.923
REMARK INTER:                 -11.844
REMARK INTRA:                  -1.079
REMARK UNBOUND:                -1.079
REMARK SMILES CNC(=O)c1cc(Oc2ccc(NC(=O)Nc3ccc(Cl)c(C(F)(F)F)c3)cc2)ccn1
REMARK SMILES IDX 9 1 10 2 11 3 12 4 28 5 29 6 8 7 7 8 5 9 6 10 32 11 31 12
REMARK SMILES IDX 30 13 3 14 2 15 4 16 1 17 13 19 14 20 15 21 16 22 17 25
REMARK SMILES IDX 18 26 27 27 19 28 22 29 20 30 21 31 23 32 24 33 25 34 26 35
REMARK H PARENT 2 18 13 23 16 24
ROOT
ATOM      1  C   UNL     1     -13.674  -0.837  -9.796  1.00  0.00    +0.127 A 
ATOM      2  C   UNL     1     -12.379  -1.233 -10.115  1.00  0.00    +0.049 A 
ATOM      3  C   UNL     1     -11.526  -0.358 -10.799  1.00  0.00    +0.030 A 
ATOM      4  C   UNL     1     -11.972   0.908 -11.184  1.00  0.00    +0.043 A 
ATOM      5  C   UNL     1     -13.286   1.289 -10.873  1.00  0.00    +0.030 A 
ATOM      6  C   UNL     1     -14.140   0.416 -10.194  1.00  0.00    +0.049 A 
ENDROOT
BRANCH   1   7
ATOM      7  O   UNL     1     -14.473  -1.751  -9.151  1.00  0.00    -0.457 OA
BRANCH   7   8
ATOM      8  C   UNL     1     -14.879  -1.451  -7.868  1.00  0.00    +0.131 A 
ATOM      9  C   UNL     1     -16.409  -0.675  -6.228  1.00  0.00    +0.131 A 
ATOM     10  C   UNL     1     -16.145  -0.967  -7.558  1.00  0.00    +0.081 A 
ATOM     11  N   UNL     1     -15.501  -0.822  -5.218  1.00  0.00    -0.251 NA
ATOM     12  C   UNL     1     -14.278  -1.269  -5.571  1.00  0.00    +0.116 A 
ATOM     13  C   UNL     1     -13.921  -1.588  -6.869  1.00  0.00    +0.067 A 
BRANCH   9  14
ATOM     14  C   UNL     1     -17.764  -0.172  -5.832  1.00  0.00    +0.269 C 
ATOM     15  N   UNL     1     -18.780  -0.554  -6.683  1.00  0.00    -0.354 N 
ATOM     16  O   UNL     1     -17.924   0.527  -4.839  1.00  0.00    -0.268 OA
ATOM     17  C   UNL     1     -20.127  -0.074  -6.542  1.00  0.00    +0.143 C 
ATOM     18  H   UNL     1     -18.493  -1.048  -7.525  1.00  0.00    +0.163 HD
ENDBRANCH   9  14
ENDBRANCH   7   8
ENDBRANCH   1   7
BRANCH   4  19
ATOM     19  N   UNL     1     -11.169   1.853 -11.856  1.00  0.00    -0.308 N 
ATOM     20  C   UNL     1     -10.914   1.925 -13.218  1.00  0.00    +0.323 C 
ATOM     21  O   UNL     1     -11.451   1.233 -14.072  1.00  0.00    -0.248 OA
ATOM     22  N   UNL     1      -9.960   2.901 -13.473  1.00  0.00    -0.308 N 
ATOM     23  H   UNL     1     -10.876   2.650 -11.311  1.00  0.00    +0.171 HD
ATOM     24  H   UNL     1      -9.415   3.191 -12.675  1.00  0.00    +0.171 HD
BRANCH  22  25
ATOM     25  C   UNL     1      -9.518   3.357 -14.731  1.00  0.00    +0.043 A 
ATOM     26  C   UNL     1      -8.379   2.880 -15.377  1.00  0.00    +0.028 A 
ATOM     27  C   UNL     1     -10.293   4.334 -15.370  1.00  0.00    +0.040 A 
ATOM     28  C   UNL     1      -8.015   3.378 -16.632  1.00  0.00    +0.023 A 
ATOM     29  C   UNL     1      -9.940   4.848 -16.637  1.00  0.00    +0.076 A 
ATOM     30  C   UNL     1      -8.789   4.357 -17.258  1.00  0.00    +0.053 A 
ATOM     31 Cl   UNL     1      -8.270   4.917 -18.805  1.00  0.00    -0.084 Cl
BRANCH  29  32
ATOM     32  C   UNL     1     -10.798   5.899 -17.286  1.00  0.00    +0.417 C 
ATOM     33  F   UNL     1     -10.136   7.077 -17.478  1.00  0.00    -0.166 F 
ATOM     34  F   UNL     1     -11.896   6.223 -16.549  1.00  0.00    -0.166 F 
ATOM     35  F   UNL     1     -11.250   5.537 -18.517  1.00  0.00    -0.166 F 
ENDBRANCH  29  32
ENDBRANCH  22  25
ENDBRANCH   4  19
TORSDOF 6
ENDMDL
MODEL 2
REMARK VINA RESULT:    -8.530      7.724      9.946
REMARK INTER + INTRA:         -12.601
REMARK INTER:                 -11.615
REMARK INTRA:                  -0.986
REMARK UNBOUND:                -1.079
REMARK SMILES CNC(=O)c1cc(Oc2ccc(NC(=O)Nc3ccc(Cl)c(C(F)(F)F)c3)cc2)ccn1
REMARK SMILES IDX 9 1 10 2 11 3 12 4 28 5 29 6 8 7 7 8 5 9 6 10 32 11 31 12
REMARK SMILES IDX 30 13 3 14 2 15 4 16 1 17 13 19 14 20 15 21 16 22 17 25
REMARK SMILES IDX 18 26 27 27 19 28 22 29 20 30 21 31 23 32 24 33 25 34 26 35
REMARK H PARENT 2 18 13 23 16 24
ROOT
ATOM      1  C   UNL     1      -7.653  -0.171 -14.468  1.00  0.00    +0.127 A 
ATOM      2  C   UNL     1      -7.892  -0.283 -15.834  1.00  0.00    +0.049 A 
ATOM      3  C   UNL     1      -8.551   0.746 -16.518  1.00  0.00    +0.030 A 
ATOM      4  C   UNL     1      -8.990   1.882 -15.835  1.00  0.00    +0.043 A 
ATOM      5  C   UNL     1      -8.760   1.975 -14.454  1.00  0.00    +0.030 A 
ATOM      6  C   UNL     1      -8.105   0.948 -13.769  1.00  0.00    +0.049 A 
ENDROOT
BRANCH   1   7
ATOM      7  O   UNL     1      -7.028  -1.227 -13.848  1.00  0.00    -0.457 OA
BRANCH   7   8
ATOM      8  C   UNL     1      -5.884  -1.725 -14.432  1.00  0.00    +0.131 A 
ATOM      9  C   UNL     1      -4.526  -3.423 -15.385  1.00  0.00    +0.131 A 
ATOM     10  C   UNL     1      -5.745  -3.047 -14.842  1.00  0.00    +0.081 A 
ATOM     11  N   UNL     1      -3.460  -2.580 -15.528  1.00  0.00    -0.251 NA
ATOM     12  C   UNL     1      -3.632  -1.315 -15.091  1.00  0.00    +0.116 A 
ATOM     13  C   UNL     1      -4.811  -0.847 -14.538  1.00  0.00    +0.067 A 
BRANCH   9  14
ATOM     14  C   UNL     1      -4.327  -4.828 -15.865  1.00  0.00    +0.269 C 
ATOM     15  N   UNL     1      -5.439  -5.632 -15.736  1.00  0.00    -0.354 N 
ATOM     16  O   UNL     1      -3.252  -5.206 -16.316  1.00  0.00    -0.268 OA
ATOM     17  C   UNL     1      -5.413  -7.040 -16.026  1.00  0.00    +0.143 C 
ATOM     18  H   UNL     1      -6.233  -5.220 -15.251  1.00  0.00    +0.163 HD
ENDBRANCH   9  14
ENDBRANCH   7   8
ENDBRANCH   1   7
BRANCH   4  19
ATOM     19  N   UNL     1      -9.642   2.969 -16.454  1.00  0.00    -0.308 N 
ATOM     20  C   UNL     1      -9.065   4.139 -16.925  1.00  0.00    +0.323 C 
ATOM     21  O   UNL     1      -7.862   4.359 -16.978  1.00  0.00    -0.248 OA
ATOM     22  N   UNL     1     -10.052   5.027 -17.332  1.00  0.00    -0.308 N 
ATOM     23  H   UNL     1     -10.602   2.812 -16.723  1.00  0.00    +0.171 HD
ATOM     24  H   UNL     1     -10.978   4.832 -16.983  1.00  0.00    +0.171 HD
BRANCH  22  25
ATOM     25  C   UNL     1      -9.874   6.269 -17.973  1.00  0.00    +0.043 A 
ATOM     26  C   UNL     1      -9.422   7.420 -17.329  1.00  0.00    +0.028 A 
ATOM     27  C   UNL     1     -10.151   6.331 -19.345  1.00  0.00    +0.040 A 
ATOM     28  C   UNL     1      -9.260   8.613 -18.042  1.00  0.00    +0.023 A 
ATOM     29  C   UNL     1      -9.994   7.526 -20.079  1.00  0.00    +0.076 A 
ATOM     30  C   UNL     1      -9.546   8.667 -19.407  1.00  0.00    +0.053 A 
ATOM     31 Cl   UNL     1      -9.320  10.177 -20.211  1.00  0.00    -0.084 Cl
BRANCH  29  32
ATOM     32  C   UNL     1     -10.306   7.550 -21.550  1.00  0.00    +0.417 C 
ATOM     33  F   UNL     1     -10.728   6.340 -22.020  1.00  0.00    -0.166 F 
ATOM     34  F   UNL     1      -9.232   7.876 -22.319  1.00  0.00    -0.166 F 
ATOM     35  F   UNL     1     -11.296   8.425 -21.874  1.00  0.00    -0.166 F 
ENDBRANCH  29  32
ENDBRANCH  22  25
ENDBRANCH   4  19
TORSDOF 6
ENDMDL
MODEL 3
REMARK VINA RESULT:    -8.518      6.745      8.184
REMARK INTER + INTRA:         -12.584
REMARK INTER:                 -11.597
REMARK INTRA:                  -0.988
REMARK UNBOUND:                -1.079
REMARK SMILES CNC(=O)c1cc(Oc2ccc(NC(=O)Nc3ccc(Cl)c(C(F)(F)F)c3)cc2)ccn1
REMARK SMILES IDX 9 1 10 2 11 3 12 4 28 5 29 6 8 7 7 8 5 9 6 10 32 11 31 12
REMARK SMILES IDX 30 13 3 14 2 15 4 16 1 17 13 19 14 20 15 21 16 22 17 25
REMARK SMILES IDX 18 26 27 27 19 28 22 29 20 30 21 31 23 32 24 33 25 34 26 35
REMARK H PARENT 2 18 13 23 16 24
ROOT
ATOM      1  C   UNL     1      -7.740  -0.473 -14.683  1.00  0.00    +0.127 A 
ATOM      2  C   UNL     1      -7.466  -0.273 -16.033  1.00  0.00    +0.049 A 
ATOM      3  C   UNL     1      -8.073   0.783 -16.723  1.00  0.00    +0.030 A 
ATOM      4  C   UNL     1      -8.972   1.630 -16.072  1.00  0.00    +0.043 A 
ATOM      5  C   UNL     1      -9.254   1.408 -14.716  1.00  0.00    +0.030 A 
ATOM      6  C   UNL     1      -8.651   0.352 -14.026  1.00  0.00    +0.049 A 
ENDROOT
BRANCH   1   7
ATOM      7  O   UNL     1      -7.135  -1.544 -14.068  1.00  0.00    -0.457 OA
BRANCH   7   8
ATOM      8  C   UNL     1      -6.240  -1.277 -13.056  1.00  0.00    +0.131 A 
ATOM      9  C   UNL     1      -5.551  -1.105 -10.791  1.00  0.00    +0.131 A 
ATOM     10  C   UNL     1      -6.535  -1.444 -11.707  1.00  0.00    +0.081 A 
ATOM     11  N   UNL     1      -4.324  -0.610 -11.134  1.00  0.00    -0.251 NA
ATOM     12  C   UNL     1      -4.093  -0.440 -12.452  1.00  0.00    +0.116 A 
ATOM     13  C   UNL     1      -5.011  -0.751 -13.440  1.00  0.00    +0.067 A 
BRANCH   9  14
ATOM     14  C   UNL     1      -5.805  -1.285  -9.325  1.00  0.00    +0.269 C 
ATOM     15  N   UNL     1      -6.999  -0.752  -8.889  1.00  0.00    -0.354 N 
ATOM     16  O   UNL     1      -4.997  -1.851  -8.598  1.00  0.00    -0.268 OA
ATOM     17  C   UNL     1      -7.366  -0.714  -7.499  1.00  0.00    +0.143 C 
ATOM     18  H   UNL     1      -7.526  -0.219  -9.577  1.00  0.00    +0.163 HD
ENDBRANCH   9  14
ENDBRANCH   7   8
ENDBRANCH   1   7
BRANCH   4  19
ATOM     19  N   UNL     1      -9.608   2.726 -16.691  1.00  0.00    -0.308 N 
ATOM     20  C   UNL     1      -9.044   3.949 -17.026  1.00  0.00    +0.323 C 
ATOM     21  O   UNL     1      -7.855   4.223 -16.935  1.00  0.00    -0.248 OA
ATOM     22  N   UNL     1     -10.026   4.818 -17.481  1.00  0.00    -0.308 N 
ATOM     23  H   UNL     1     -10.526   2.547 -17.070  1.00  0.00    +0.171 HD
ATOM     24  H   UNL     1     -10.973   4.561 -17.246  1.00  0.00    +0.171 HD
BRANCH  22  25
ATOM     25  C   UNL     1      -9.844   6.106 -18.023  1.00  0.00    +0.043 A 
ATOM     26  C   UNL     1      -9.373   7.198 -17.296  1.00  0.00    +0.028 A 
ATOM     27  C   UNL     1     -10.137   6.280 -19.383  1.00  0.00    +0.040 A 
ATOM     28  C   UNL     1      -9.209   8.442 -17.913  1.00  0.00    +0.023 A 
ATOM     29  C   UNL     1      -9.977   7.529 -20.021  1.00  0.00    +0.076 A 
ATOM     30  C   UNL     1      -9.510   8.608 -19.266  1.00  0.00    +0.053 A 
ATOM     31 Cl   UNL     1      -9.280  10.175 -19.949  1.00  0.00    -0.084 Cl
BRANCH  29  32
ATOM     32  C   UNL     1     -10.307   7.673 -21.481  1.00  0.00    +0.417 C 
ATOM     33  F   UNL     1      -9.244   8.104 -22.222  1.00  0.00    -0.166 F 
ATOM     34  F   UNL     1     -11.297   8.576 -21.719  1.00  0.00    -0.166 F 
ATOM     35  F   UNL     1     -10.697   6.506 -22.061  1.00  0.00    -0.166 F 
ENDBRANCH  29  32
ENDBRANCH  22  25
ENDBRANCH   4  19
TORSDOF 6
ENDMDL
MODEL 4
REMARK VINA RESULT:    -8.484      3.975      4.985
REMARK INTER + INTRA:         -12.539
REMARK INTER:                 -12.142
REMARK INTRA:                  -0.397
REMARK UNBOUND:                -1.079
REMARK SMILES CNC(=O)c1cc(Oc2ccc(NC(=O)Nc3ccc(Cl)c(C(F)(F)F)c3)cc2)ccn1
REMARK SMILES IDX 9 1 10 2 11 3 12 4 28 5 29 6 8 7 7 8 5 9 6 10 32 11 31 12
REMARK SMILES IDX 30 13 3 14 2 15 4 16 1 17 13 19 14 20 15 21 16 22 17 25
REMARK SMILES IDX 18 26 27 27 19 28 22 29 20 30 21 31 23 32 24 33 25 34 26 35
REMARK H PARENT 2 18 13 23 16 24
ROOT
ATOM      1  C   UNL     1     -12.913   1.707 -11.826  1.00  0.00    +0.127 A 
ATOM      2  C   UNL     1     -13.653   2.639 -12.548  1.00  0.00    +0.049 A 
ATOM      3  C   UNL     1     -13.093   3.261 -13.670  1.00  0.00    +0.030 A 
ATOM      4  C   UNL     1     -11.786   2.969 -14.063  1.00  0.00    +0.043 A 
ATOM      5  C   UNL     1     -11.044   2.041 -13.317  1.00  0.00    +0.030 A 
ATOM      6  C   UNL     1     -11.599   1.422 -12.194  1.00  0.00    +0.049 A 
ENDROOT
BRANCH   1   7
ATOM      7  O   UNL     1     -13.507   1.153 -10.716  1.00  0.00    -0.457 OA
BRANCH   7   8
ATOM      8  C   UNL     1     -12.824   0.153 -10.059  1.00  0.00    +0.131 A 
ATOM      9  C   UNL     1     -12.326  -2.101  -9.509  1.00  0.00    +0.131 A 
ATOM     10  C   UNL     1     -13.063  -1.202 -10.263  1.00  0.00    +0.081 A 
ATOM     11  N   UNL     1     -11.397  -1.737  -8.576  1.00  0.00    -0.251 NA
ATOM     12  C   UNL     1     -11.218  -0.411  -8.393  1.00  0.00    +0.116 A 
ATOM     13  C   UNL     1     -11.905   0.561  -9.098  1.00  0.00    +0.067 A 
BRANCH   9  14
ATOM     14  C   UNL     1     -12.525  -3.574  -9.703  1.00  0.00    +0.269 C 
ATOM     15  N   UNL     1     -13.017  -3.919 -10.944  1.00  0.00    -0.354 N 
ATOM     16  O   UNL     1     -12.274  -4.379  -8.814  1.00  0.00    -0.268 OA
ATOM     17  C   UNL     1     -13.390  -5.266 -11.280  1.00  0.00    +0.143 C 
ATOM     18  H   UNL     1     -13.278  -3.144 -11.550  1.00  0.00    +0.163 HD
ENDBRANCH   9  14
ENDBRANCH   7   8
ENDBRANCH   1   7
BRANCH   4  19
ATOM     19  N   UNL     1     -11.158   3.536 -15.192  1.00  0.00    -0.308 N 
ATOM     20  C   UNL     1     -11.080   4.881 -15.525  1.00  0.00    +0.323 C 
ATOM     21  O   UNL     1     -11.454   5.804 -14.815  1.00  0.00    -0.248 OA
ATOM     22  N   UNL     1     -10.513   5.027 -16.785  1.00  0.00    -0.308 N 
ATOM     23  H   UNL     1     -10.573   2.915 -15.730  1.00  0.00    +0.171 HD
ATOM     24  H   UNL     1     -10.510   4.196 -17.356  1.00  0.00    +0.171 HD
BRANCH  22  25
ATOM     25  C   UNL     1     -10.158   6.229 -17.428  1.00  0.00    +0.043 A 
ATOM     26  C   UNL     1      -9.616   7.333 -16.772  1.00  0.00    +0.028 A 
ATOM     27  C   UNL     1     -10.344   6.297 -18.816  1.00  0.00    +0.040 A 
ATOM     28  C   UNL     1      -9.279   8.487 -17.487  1.00  0.00    +0.023 A 
ATOM     29  C   UNL     1     -10.009   7.453 -19.552  1.00  0.00    +0.076 A 
ATOM     30  C   UNL     1      -9.475   8.548 -18.868  1.00  0.00    +0.053 A 
ATOM     31 Cl   UNL     1      -9.032  10.007 -19.674  1.00  0.00    -0.084 Cl
BRANCH  29  32
ATOM     32  C   UNL     1     -10.229   7.485 -21.040  1.00  0.00    +0.417 C 
ATOM     33  F   UNL     1      -9.067   7.629 -21.743  1.00  0.00    -0.166 F 
ATOM     34  F   UNL     1     -11.019   8.517 -21.441  1.00  0.00    -0.166 F 
ATOM     35  F   UNL     1     -10.800   6.348 -21.522  1.00  0.00    -0.166 F 
ENDBRANCH  29  32
ENDBRANCH  22  25
ENDBRANCH   4  19
TORSDOF 6
ENDMDL
MODEL 5
REMARK VINA RESULT:    -8.304      2.317      3.573
REMARK INTER + INTRA:         -12.296
REMARK INTER:                 -11.499
REMARK INTRA:                  -0.798
REMARK UNBOUND:                -1.079
REMARK SMILES CNC(=O)c1cc(Oc2ccc(NC(=O)Nc3ccc(Cl)c(C(F)(F)F)c3)cc2)ccn1
REMARK SMILES IDX 9 1 10 2 11 3 12 4 28 5 29 6 8 7 7 8 5 9 6 10 32 11 31 12
REMARK SMILES IDX 30 13 3 14 2 15 4 16 1 17 13 19 14 20 15 21 16 22 17 25
REMARK SMILES IDX 18 26 27 27 19 28 22 29 20 30 21 31 23 32 24 33 25 34 26 35
REMARK H PARENT 2 18 13 23 16 24
ROOT
ATOM      1  C   UNL     1     -14.115  -0.525  -9.773  1.00  0.00    +0.127 A 
ATOM      2  C   UNL     1     -14.520   0.713 -10.262  1.00  0.00    +0.049 A 
ATOM      3  C   UNL     1     -13.610   1.530 -10.944  1.00  0.00    +0.030 A 
ATOM      4  C   UNL     1     -12.287   1.120 -11.122  1.00  0.00    +0.043 A 
ATOM      5  C   UNL     1     -11.886  -0.123 -10.609  1.00  0.00    +0.030 A 
ATOM      6  C   UNL     1     -12.792  -0.938  -9.925  1.00  0.00    +0.049 A 
ENDROOT
BRANCH   1   7
ATOM      7  O   UNL     1     -15.047  -1.268  -9.087  1.00  0.00    -0.457 OA
BRANCH   7   8
ATOM      8  C   UNL     1     -14.582  -2.241  -8.229  1.00  0.00    +0.131 A 
ATOM      9  C   UNL     1     -13.969  -4.452  -7.624  1.00  0.00    +0.131 A 
ATOM     10  C   UNL     1     -14.414  -3.572  -8.598  1.00  0.00    +0.081 A 
ATOM     11  N   UNL     1     -13.703  -4.095  -6.332  1.00  0.00    -0.251 NA
ATOM     12  C   UNL     1     -13.907  -2.799  -6.014  1.00  0.00    +0.116 A 
ATOM     13  C   UNL     1     -14.346  -1.846  -6.917  1.00  0.00    +0.067 A 
BRANCH   9  14
ATOM     14  C   UNL     1     -13.747  -5.894  -7.969  1.00  0.00    +0.269 C 
ATOM     15  N   UNL     1     -12.902  -6.094  -9.040  1.00  0.00    -0.354 N 
ATOM     16  O   UNL     1     -14.293  -6.795  -7.345  1.00  0.00    -0.268 OA
ATOM     17  C   UNL     1     -12.661  -7.395  -9.601  1.00  0.00    +0.143 C 
ATOM     18  H   UNL     1     -12.600  -5.256  -9.532  1.00  0.00    +0.163 HD
ENDBRANCH   9  14
ENDBRANCH   7   8
ENDBRANCH   1   7
BRANCH   4  19
ATOM     19  N   UNL     1     -11.317   1.874 -11.814  1.00  0.00    -0.308 N 
ATOM     20  C   UNL     1     -11.220   2.067 -13.185  1.00  0.00    +0.323 C 
ATOM     21  O   UNL     1     -12.045   1.696 -14.008  1.00  0.00    -0.248 OA
ATOM     22  N   UNL     1     -10.046   2.745 -13.489  1.00  0.00    -0.308 N 
ATOM     23  H   UNL     1     -10.726   2.461 -11.244  1.00  0.00    +0.171 HD
ATOM     24  H   UNL     1      -9.345   2.742 -12.763  1.00  0.00    +0.171 HD
BRANCH  22  25
ATOM     25  C   UNL     1      -9.640   3.230 -14.748  1.00  0.00    +0.043 A 
ATOM     26  C   UNL     1      -8.585   2.694 -15.485  1.00  0.00    +0.028 A 
ATOM     27  C   UNL     1     -10.364   4.300 -15.290  1.00  0.00    +0.040 A 
ATOM     28  C   UNL     1      -8.252   3.227 -16.735  1.00  0.00    +0.023 A 
ATOM     29  C   UNL     1     -10.041   4.850 -16.549  1.00  0.00    +0.076 A 
ATOM     30  C   UNL     1      -8.974   4.299 -17.264  1.00  0.00    +0.053 A 
ATOM     31 Cl   UNL     1      -8.499   4.896 -18.811  1.00  0.00    -0.084 Cl
BRANCH  29  32
ATOM     32  C   UNL     1     -10.842   6.002 -17.092  1.00  0.00    +0.417 C 
ATOM     33  F   UNL     1     -11.911   6.320 -16.304  1.00  0.00    -0.166 F 
ATOM     34  F   UNL     1     -11.367   5.755 -18.323  1.00  0.00    -0.166 F 
ATOM     35  F   UNL     1     -10.122   7.151 -17.200  1.00  0.00    -0.166 F 
ENDBRANCH  29  32
ENDBRANCH  22  25
ENDBRANCH   4  19
TORSDOF 6
ENDMDL
MODEL 6
REMARK VINA RESULT:    -8.300      2.013      2.556
REMARK INTER + INTRA:         -12.291
REMARK INTER:                 -12.442
REMARK INTRA:                   0.151
REMARK UNBOUND:                -1.079
REMARK SMILES CNC(=O)c1cc(Oc2ccc(NC(=O)Nc3ccc(Cl)c(C(F)(F)F)c3)cc2)ccn1
REMARK SMILES IDX 9 1 10 2 11 3 12 4 28 5 29 6 8 7 7 8 5 9 6 10 32 11 31 12
REMARK SMILES IDX 30 13 3 14 2 15 4 16 1 17 13 19 14 20 15 21 16 22 17 25
REMARK SMILES IDX 18 26 27 27 19 28 22 29 20 30 21 31 23 32 24 33 25 34 26 35
REMARK H PARENT 2 18 13 23 16 24
ROOT
ATOM      1  C   UNL     1     -12.894   0.016 -10.013  1.00  0.00    +0.127 A 
ATOM      2  C   UNL     1     -11.656   0.150 -10.635  1.00  0.00    +0.049 A 
ATOM      3  C   UNL     1     -11.465   1.136 -11.610  1.00  0.00    +0.030 A 
ATOM      4  C   UNL     1     -12.515   1.978 -11.982  1.00  0.00    +0.043 A 
ATOM      5  C   UNL     1     -13.763   1.821 -11.360  1.00  0.00    +0.030 A 
ATOM      6  C   UNL     1     -13.958   0.835 -10.389  1.00  0.00    +0.049 A 
ENDROOT
BRANCH   1   7
ATOM      7  O   UNL     1     -13.029  -0.990  -9.085  1.00  0.00    -0.457 OA
BRANCH   7   8
ATOM      8  C   UNL     1     -14.306  -1.380  -8.746  1.00  0.00    +0.131 A 
ATOM      9  C   UNL     1     -16.379  -1.181  -7.607  1.00  0.00    +0.131 A 
ATOM     10  C   UNL     1     -15.127  -0.655  -7.888  1.00  0.00    +0.081 A 
ATOM     11  N   UNL     1     -16.842  -2.364  -8.107  1.00  0.00    -0.251 NA
ATOM     12  C   UNL     1     -16.000  -3.045  -8.913  1.00  0.00    +0.116 A 
ATOM     13  C   UNL     1     -14.735  -2.602  -9.254  1.00  0.00    +0.067 A 
BRANCH   9  14
ATOM     14  C   UNL     1     -17.315  -0.432  -6.707  1.00  0.00    +0.269 C 
ATOM     15  N   UNL     1     -18.562  -0.207  -7.252  1.00  0.00    -0.354 N 
ATOM     16  O   UNL     1     -16.971  -0.053  -5.594  1.00  0.00    -0.268 OA
ATOM     17  C   UNL     1     -19.557   0.598  -6.597  1.00  0.00    +0.143 C 
ATOM     18  H   UNL     1     -18.680  -0.484  -8.223  1.00  0.00    +0.163 HD
ENDBRANCH   9  14
ENDBRANCH   7   8
ENDBRANCH   1   7
BRANCH   4  19
ATOM     19  N   UNL     1     -12.396   3.007 -12.939  1.00  0.00    -0.308 N 
ATOM     20  C   UNL     1     -11.476   3.094 -13.973  1.00  0.00    +0.323 C 
ATOM     21  O   UNL     1     -10.683   2.215 -14.285  1.00  0.00    -0.248 OA
ATOM     22  N   UNL     1     -11.584   4.326 -14.605  1.00  0.00    -0.308 N 
ATOM     23  H   UNL     1     -13.157   3.669 -12.970  1.00  0.00    +0.171 HD
ATOM     24  H   UNL     1     -12.071   5.038 -14.083  1.00  0.00    +0.171 HD
BRANCH  22  25
ATOM     25  C   UNL     1     -10.910   4.753 -15.767  1.00  0.00    +0.043 A 
ATOM     26  C   UNL     1     -11.441   5.653 -16.688  1.00  0.00    +0.028 A 
ATOM     27  C   UNL     1      -9.619   4.252 -15.984  1.00  0.00    +0.040 A 
ATOM     28  C   UNL     1     -10.701   6.036 -17.812  1.00  0.00    +0.023 A 
ATOM     29  C   UNL     1      -8.859   4.627 -17.112  1.00  0.00    +0.076 A 
ATOM     30  C   UNL     1      -9.419   5.526 -18.024  1.00  0.00    +0.053 A 
ATOM     31 Cl   UNL     1      -8.574   6.049 -19.434  1.00  0.00    -0.084 Cl
BRANCH  29  32
ATOM     32  C   UNL     1      -7.479   4.062 -17.309  1.00  0.00    +0.417 C 
ATOM     33  F   UNL     1      -7.035   3.363 -16.224  1.00  0.00    -0.166 F 
ATOM     34  F   UNL     1      -6.536   5.019 -17.527  1.00  0.00    -0.166 F 
ATOM     35  F   UNL     1      -7.399   3.193 -18.353  1.00  0.00    -0.166 F 
ENDBRANCH  29  32
ENDBRANCH  22  25
ENDBRANCH   4  19
TORSDOF 6
ENDMDL
MODEL 7
REMARK VINA RESULT:    -8.285      4.288      5.544
REMARK INTER + INTRA:         -12.270
REMARK INTER:                 -12.005
REMARK INTRA:                  -0.265
REMARK UNBOUND:                -1.079
REMARK SMILES CNC(=O)c1cc(Oc2ccc(NC(=O)Nc3ccc(Cl)c(C(F)(F)F)c3)cc2)ccn1
REMARK SMILES IDX 9 1 10 2 11 3 12 4 28 5 29 6 8 7 7 8 5 9 6 10 32 11 31 12
REMARK SMILES IDX 30 13 3 14 2 15 4 16 1 17 13 19 14 20 15 21 16 22 17 25
REMARK SMILES IDX 18 26 27 27 19 28 22 29 20 30 21 31 23 32 24 33 25 34 26 35
REMARK H PARENT 2 18 13 23 16 24
ROOT
ATOM      1  C   UNL     1     -12.301   1.571 -12.069  1.00  0.00    +0.127 A 
ATOM      2  C   UNL     1     -13.102   2.452 -12.789  1.00  0.00    +0.049 A 
ATOM      3  C   UNL     1     -12.591   3.104 -13.917  1.00  0.00    +0.030 A 
ATOM      4  C   UNL     1     -11.270   2.892 -14.319  1.00  0.00    +0.043 A 
ATOM      5  C   UNL     1     -10.466   2.016 -13.574  1.00  0.00    +0.030 A 
ATOM      6  C   UNL     1     -10.974   1.367 -12.445  1.00  0.00    +0.049 A 
ENDROOT
BRANCH   1   7
ATOM      7  O   UNL     1     -12.851   0.985 -10.953  1.00  0.00    -0.457 OA
BRANCH   7   8
ATOM      8  C   UNL     1     -12.078   0.078 -10.262  1.00  0.00    +0.131 A 
ATOM      9  C   UNL     1     -10.697  -0.638  -8.468  1.00  0.00    +0.131 A 
ATOM     10  C   UNL     1     -11.477   0.357  -9.038  1.00  0.00    +0.081 A 
ATOM     11  N   UNL     1     -10.477  -1.859  -9.039  1.00  0.00    -0.251 NA
ATOM     12  C   UNL     1     -11.058  -2.075 -10.238  1.00  0.00    +0.116 A 
ATOM     13  C   UNL     1     -11.854  -1.146 -10.885  1.00  0.00    +0.067 A 
BRANCH   9  14
ATOM     14  C   UNL     1     -10.044  -0.402  -7.140  1.00  0.00    +0.269 C 
ATOM     15  N   UNL     1      -8.724  -0.012  -7.221  1.00  0.00    -0.354 N 
ATOM     16  O   UNL     1     -10.652  -0.562  -6.088  1.00  0.00    -0.268 OA
ATOM     17  C   UNL     1      -7.892   0.144  -6.059  1.00  0.00    +0.143 C 
ATOM     18  H   UNL     1      -8.315  -0.018  -8.153  1.00  0.00    +0.163 HD
ENDBRANCH   9  14
ENDBRANCH   7   8
ENDBRANCH   1   7
BRANCH   4  19
ATOM     19  N   UNL     1     -10.688   3.494 -15.454  1.00  0.00    -0.308 N 
ATOM     20  C   UNL     1     -10.747   4.830 -15.823  1.00  0.00    +0.323 C 
ATOM     21  O   UNL     1     -11.229   5.727 -15.144  1.00  0.00    -0.248 OA
ATOM     22  N   UNL     1     -10.178   5.003 -17.078  1.00  0.00    -0.308 N 
ATOM     23  H   UNL     1     -10.031   2.924 -15.966  1.00  0.00    +0.171 HD
ATOM     24  H   UNL     1     -10.077   4.162 -17.626  1.00  0.00    +0.171 HD
BRANCH  22  25
ATOM     25  C   UNL     1      -9.942   6.219 -17.750  1.00  0.00    +0.043 A 
ATOM     26  C   UNL     1      -9.434   7.362 -17.135  1.00  0.00    +0.028 A 
ATOM     27  C   UNL     1     -10.216   6.260 -19.124  1.00  0.00    +0.040 A 
ATOM     28  C   UNL     1      -9.217   8.528 -17.877  1.00  0.00    +0.023 A 
ATOM     29  C   UNL     1     -10.002   7.428 -19.887  1.00  0.00    +0.076 A 
ATOM     30  C   UNL     1      -9.500   8.562 -19.243  1.00  0.00    +0.053 A 
ATOM     31 Cl   UNL     1      -9.203  10.039 -20.084  1.00  0.00    -0.084 Cl
BRANCH  29  32
ATOM     32  C   UNL     1     -10.313   7.430 -21.358  1.00  0.00    +0.417 C 
ATOM     33  F   UNL     1     -10.868   6.256 -21.783  1.00  0.00    -0.166 F 
ATOM     34  F   UNL     1      -9.212   7.606 -22.137  1.00  0.00    -0.166 F 
ATOM     35  F   UNL     1     -11.202   8.396 -21.717  1.00  0.00    -0.166 F 
ENDBRANCH  29  32
ENDBRANCH  22  25
ENDBRANCH   4  19
TORSDOF 6
ENDMDL
MODEL 8
REMARK VINA RESULT:    -8.285      7.869     10.284
REMARK INTER + INTRA:         -12.270
REMARK INTER:                 -11.278
REMARK INTRA:                  -0.992
REMARK UNBOUND:                -1.079
REMARK SMILES CNC(=O)c1cc(Oc2ccc(NC(=O)Nc3ccc(Cl)c(C(F)(F)F)c3)cc2)ccn1
REMARK SMILES IDX 9 1 10 2 11 3 12 4 28 5 29 6 8 7 7 8 5 9 6 10 32 11 31 12
REMARK SMILES IDX 30 13 3 14 2 15 4 16 1 17 13 19 14 20 15 21 16 22 17 25
REMARK SMILES IDX 18 26 27 27 19 28 22 29 20 30 21 31 23 32 24 33 25 34 26 35
REMARK H PARENT 2 18 13 23 16 24
ROOT
ATOM      1  C   UNL     1      -7.601  -0.115 -14.442  1.00  0.00    +0.127 A 
ATOM      2  C   UNL     1      -8.133  -0.348 -15.707  1.00  0.00    +0.049 A 
ATOM      3  C   UNL     1      -8.809   0.675 -16.383  1.00  0.00    +0.030 A 
ATOM      4  C   UNL     1      -8.974   1.928 -15.788  1.00  0.00    +0.043 A 
ATOM      5  C   UNL     1      -8.450   2.144 -14.505  1.00  0.00    +0.030 A 
ATOM      6  C   UNL     1      -7.777   1.124 -13.827  1.00  0.00    +0.049 A 
ENDROOT
BRANCH   1   7
ATOM      7  O   UNL     1      -6.974  -1.168 -13.818  1.00  0.00    -0.457 OA
BRANCH   7   8
ATOM      8  C   UNL     1      -5.793  -1.622 -14.363  1.00  0.00    +0.131 A 
ATOM      9  C   UNL     1      -3.731  -1.387 -15.515  1.00  0.00    +0.131 A 
ATOM     10  C   UNL     1      -4.863  -0.791 -14.979  1.00  0.00    +0.081 A 
ATOM     11  N   UNL     1      -3.486  -2.730 -15.485  1.00  0.00    -0.251 NA
ATOM     12  C   UNL     1      -4.429  -3.499 -14.901  1.00  0.00    +0.116 A 
ATOM     13  C   UNL     1      -5.589  -2.998 -14.337  1.00  0.00    +0.067 A 
BRANCH   9  14
ATOM     14  C   UNL     1      -2.684  -0.538 -16.171  1.00  0.00    +0.269 C 
ATOM     15  N   UNL     1      -3.088   0.043 -17.354  1.00  0.00    -0.354 N 
ATOM     16  O   UNL     1      -1.570  -0.402 -15.682  1.00  0.00    -0.268 OA
ATOM     17  C   UNL     1      -2.191   0.791 -18.193  1.00  0.00    +0.143 C 
ATOM     18  H   UNL     1      -4.003  -0.237 -17.698  1.00  0.00    +0.163 HD
ENDBRANCH   9  14
ENDBRANCH   7   8
ENDBRANCH   1   7
BRANCH   4  19
ATOM     19  N   UNL     1      -9.624   3.013 -16.410  1.00  0.00    -0.308 N 
ATOM     20  C   UNL     1      -9.045   4.180 -16.888  1.00  0.00    +0.323 C 
ATOM     21  O   UNL     1      -7.842   4.397 -16.943  1.00  0.00    -0.248 OA
ATOM     22  N   UNL     1     -10.031   5.070 -17.295  1.00  0.00    -0.308 N 
ATOM     23  H   UNL     1     -10.585   2.858 -16.677  1.00  0.00    +0.171 HD
ATOM     24  H   UNL     1     -10.957   4.879 -16.944  1.00  0.00    +0.171 HD
BRANCH  22  25
ATOM     25  C   UNL     1      -9.851   6.309 -17.942  1.00  0.00    +0.043 A 
ATOM     26  C   UNL     1      -9.391   7.460 -17.305  1.00  0.00    +0.028 A 
ATOM     27  C   UNL     1     -10.133   6.366 -19.313  1.00  0.00    +0.040 A 
ATOM     28  C   UNL     1      -9.228   8.650 -18.022  1.00  0.00    +0.023 A 
ATOM     29  C   UNL     1      -9.974   7.558 -20.052  1.00  0.00    +0.076 A 
ATOM     30  C   UNL     1      -9.519   8.700 -19.387  1.00  0.00    +0.053 A 
ATOM     31 Cl   UNL     1      -9.291  10.206 -20.197  1.00  0.00    -0.084 Cl
BRANCH  29  32
ATOM     32  C   UNL     1     -10.293   7.578 -21.522  1.00  0.00    +0.417 C 
ATOM     33  F   UNL     1     -10.720   6.367 -21.986  1.00  0.00    -0.166 F 
ATOM     34  F   UNL     1      -9.221   7.899 -22.297  1.00  0.00    -0.166 F 
ATOM     35  F   UNL     1     -11.282   8.454 -21.845  1.00  0.00    -0.166 F 
ENDBRANCH  29  32
ENDBRANCH  22  25
ENDBRANCH   4  19
TORSDOF 6
ENDMDL
MODEL 9
REMARK VINA RESULT:    -8.232      1.374      2.708
REMARK INTER + INTRA:         -12.199
REMARK INTER:                 -11.097
REMARK INTRA:                  -1.102
REMARK UNBOUND:                -1.079
REMARK SMILES CNC(=O)c1cc(Oc2ccc(NC(=O)Nc3ccc(Cl)c(C(F)(F)F)c3)cc2)ccn1
REMARK SMILES IDX 9 1 10 2 11 3 12 4 28 5 29 6 8 7 7 8 5 9 6 10 32 11 31 12
REMARK SMILES IDX 30 13 3 14 2 15 4 16 1 17 13 19 14 20 15 21 16 22 17 25
REMARK SMILES IDX 18 26 27 27 19 28 22 29 20 30 21 31 23 32 24 33 25 34 26 35
REMARK H PARENT 2 18 13 23 16 24
ROOT
ATOM      1  C   UNL     1     -13.710  -0.768  -9.799  1.00  0.00    +0.127 A 
ATOM      2  C   UNL     1     -12.423  -1.187 -10.124  1.00  0.00    +0.049 A 
ATOM      3  C   UNL     1     -11.561  -0.331 -10.818  1.00  0.00    +0.030 A 
ATOM      4  C   UNL     1     -11.988   0.940 -11.208  1.00  0.00    +0.043 A 
ATOM      5  C   UNL     1     -13.293   1.345 -10.891  1.00  0.00    +0.030 A 
ATOM      6  C   UNL     1     -14.157   0.490 -10.201  1.00  0.00    +0.049 A 
ENDROOT
BRANCH   1   7
ATOM      7  O   UNL     1     -14.520  -1.665  -9.143  1.00  0.00    -0.457 OA
BRANCH   7   8
ATOM      8  C   UNL     1     -14.742  -1.461  -7.799  1.00  0.00    +0.131 A 
ATOM      9  C   UNL     1     -14.089  -1.060  -5.553  1.00  0.00    +0.131 A 
ATOM     10  C   UNL     1     -13.726  -1.214  -6.882  1.00  0.00    +0.081 A 
ATOM     11  N   UNL     1     -15.373  -1.148  -5.095  1.00  0.00    -0.251 NA
ATOM     12  C   UNL     1     -16.322  -1.415  -6.017  1.00  0.00    +0.116 A 
ATOM     13  C   UNL     1     -16.058  -1.583  -7.364  1.00  0.00    +0.067 A 
BRANCH   9  14
ATOM     14  C   UNL     1     -13.039  -0.769  -4.524  1.00  0.00    +0.269 C 
ATOM     15  N   UNL     1     -11.749  -0.999  -4.953  1.00  0.00    -0.354 N 
ATOM     16  O   UNL     1     -13.331  -0.374  -3.402  1.00  0.00    -0.268 OA
ATOM     17  C   UNL     1     -10.613  -0.897  -4.077  1.00  0.00    +0.143 C 
ATOM     18  H   UNL     1     -11.655  -1.424  -5.872  1.00  0.00    +0.163 HD
ENDBRANCH   9  14
ENDBRANCH   7   8
ENDBRANCH   1   7
BRANCH   4  19
ATOM     19  N   UNL     1     -11.174   1.868 -11.890  1.00  0.00    -0.308 N 
ATOM     20  C   UNL     1     -10.972   1.964 -13.259  1.00  0.00    +0.323 C 
ATOM     21  O   UNL     1     -11.571   1.316 -14.106  1.00  0.00    -0.248 OA
ATOM     22  N   UNL     1      -9.988   2.906 -13.531  1.00  0.00    -0.308 N 
ATOM     23  H   UNL     1     -10.826   2.639 -11.339  1.00  0.00    +0.171 HD
ATOM     24  H   UNL     1      -9.399   3.154 -12.749  1.00  0.00    +0.171 HD
BRANCH  22  25
ATOM     25  C   UNL     1      -9.578   3.376 -14.795  1.00  0.00    +0.043 A 
ATOM     26  C   UNL     1      -8.453   2.908 -15.472  1.00  0.00    +0.028 A 
ATOM     27  C   UNL     1     -10.372   4.355 -15.406  1.00  0.00    +0.040 A 
ATOM     28  C   UNL     1      -8.122   3.419 -16.731  1.00  0.00    +0.023 A 
ATOM     29  C   UNL     1     -10.052   4.882 -16.676  1.00  0.00    +0.076 A 
ATOM     30  C   UNL     1      -8.914   4.401 -17.329  1.00  0.00    +0.053 A 
ATOM     31 Cl   UNL     1      -8.435   4.977 -18.883  1.00  0.00    -0.084 Cl
BRANCH  29  32
ATOM     32  C   UNL     1     -10.929   5.935 -17.294  1.00  0.00    +0.417 C 
ATOM     33  F   UNL     1     -12.042   6.200 -16.549  1.00  0.00    -0.166 F 
ATOM     34  F   UNL     1     -11.398   5.586 -18.523  1.00  0.00    -0.166 F 
ATOM     35  F   UNL     1     -10.304   7.135 -17.443  1.00  0.00    -0.166 F 
ENDBRANCH  29  32
ENDBRANCH  22  25
ENDBRANCH   4  19
TORSDOF 6
ENDMDL
MODEL 10
REMARK VINA RESULT:    -8.161      4.184      6.506
REMARK INTER + INTRA:         -12.103
REMARK INTER:                 -11.637
REMARK INTRA:                  -0.466
REMARK UNBOUND:                -1.079
REMARK SMILES CNC(=O)c1cc(Oc2ccc(NC(=O)Nc3ccc(Cl)c(C(F)(F)F)c3)cc2)ccn1
REMARK SMILES IDX 9 1 10 2 11 3 12 4 28 5 29 6 8 7 7 8 5 9 6 10 32 11 31 12
REMARK SMILES IDX 30 13 3 14 2 15 4 16 1 17 13 19 14 20 15 21 16 22 17 25
REMARK SMILES IDX 18 26 27 27 19 28 22 29 20 30 21 31 23 32 24 33 25 34 26 35
REMARK H PARENT 2 18 13 23 16 24
ROOT
ATOM      1  C   UNL     1      -7.751  -0.067 -14.098  1.00  0.00    +0.127 A 
ATOM      2  C   UNL     1      -7.975  -0.367 -15.439  1.00  0.00    +0.049 A 
ATOM      3  C   UNL     1      -8.581   0.576 -16.277  1.00  0.00    +0.030 A 
ATOM      4  C   UNL     1      -8.982   1.816 -15.774  1.00  0.00    +0.043 A 
ATOM      5  C   UNL     1      -8.766   2.100 -14.418  1.00  0.00    +0.030 A 
ATOM      6  C   UNL     1      -8.166   1.158 -13.578  1.00  0.00    +0.049 A 
ENDROOT
BRANCH   1   7
ATOM      7  O   UNL     1      -7.179  -1.046 -13.319  1.00  0.00    -0.457 OA
BRANCH   7   8
ATOM      8  C   UNL     1      -7.847  -1.421 -12.174  1.00  0.00    +0.131 A 
ATOM      9  C   UNL     1      -9.744  -1.610 -10.761  1.00  0.00    +0.131 A 
ATOM     10  C   UNL     1      -9.208  -1.213 -11.976  1.00  0.00    +0.081 A 
ATOM     11  N   UNL     1      -9.018  -2.177  -9.752  1.00  0.00    -0.251 NA
ATOM     12  C   UNL     1      -7.697  -2.335  -9.979  1.00  0.00    +0.116 A 
ATOM     13  C   UNL     1      -7.072  -1.972 -11.159  1.00  0.00    +0.067 A 
BRANCH   9  14
ATOM     14  C   UNL     1     -11.210  -1.431 -10.500  1.00  0.00    +0.269 C 
ATOM     15  N   UNL     1     -11.611  -0.115 -10.415  1.00  0.00    -0.354 N 
ATOM     16  O   UNL     1     -11.959  -2.390 -10.366  1.00  0.00    -0.268 OA
ATOM     17  C   UNL     1     -12.950   0.262 -10.050  1.00  0.00    +0.143 C 
ATOM     18  H   UNL     1     -10.869   0.580 -10.443  1.00  0.00    +0.163 HD
ENDBRANCH   9  14
ENDBRANCH   7   8
ENDBRANCH   1   7
BRANCH   4  19
ATOM     19  N   UNL     1      -9.578   2.825 -16.557  1.00  0.00    -0.308 N 
ATOM     20  C   UNL     1      -9.051   4.070 -16.872  1.00  0.00    +0.323 C 
ATOM     21  O   UNL     1      -7.916   4.441 -16.604  1.00  0.00    -0.248 OA
ATOM     22  N   UNL     1     -10.000   4.835 -17.537  1.00  0.00    -0.308 N 
ATOM     23  H   UNL     1     -10.404   2.555 -17.071  1.00  0.00    +0.171 HD
ATOM     24  H   UNL     1     -10.953   4.517 -17.445  1.00  0.00    +0.171 HD
BRANCH  22  25
ATOM     25  C   UNL     1      -9.818   6.104 -18.121  1.00  0.00    +0.043 A 
ATOM     26  C   UNL     1      -9.338   7.217 -17.433  1.00  0.00    +0.028 A 
ATOM     27  C   UNL     1     -10.121   6.235 -19.484  1.00  0.00    +0.040 A 
ATOM     28  C   UNL     1      -9.175   8.441 -18.092  1.00  0.00    +0.023 A 
ATOM     29  C   UNL     1      -9.962   7.462 -20.163  1.00  0.00    +0.076 A 
ATOM     30  C   UNL     1      -9.486   8.564 -19.447  1.00  0.00    +0.053 A 
ATOM     31 Cl   UNL     1      -9.256  10.107 -20.183  1.00  0.00    -0.084 Cl
BRANCH  29  32
ATOM     32  C   UNL     1     -10.303   7.560 -21.625  1.00  0.00    +0.417 C 
ATOM     33  F   UNL     1     -11.285   8.474 -21.878  1.00  0.00    -0.166 F 
ATOM     34  F   UNL     1     -10.762   6.389 -22.146  1.00  0.00    -0.166 F 
ATOM     35  F   UNL     1      -9.250   7.942 -22.396  1.00  0.00    -0.166 F 
ENDBRANCH  29  32
ENDBRANCH  22  25
ENDBRANCH   4  19
TORSDOF 6
ENDMDL
