MODEL 1
REMARK VINA RESULT:   -10.116      0.000      0.000
REMARK INTER + INTRA:         -14.702
REMARK INTER:                 -13.664
REMARK INTRA:                  -1.037
REMARK UNBOUND:                -1.037
REMARK SMILES Cc1ccc(C(=O)Nc2ccc(CN3CCN(C)CC3)c(C(F)(F)F)c2)cc1C#Cc1cnc2cccnn12
REMARK SMILES IDX 9 1 10 2 11 3 12 4 21 5 26 6 8 7 6 8 7 9 5 11 2 12 3 13
REMARK SMILES IDX 28 14 4 15 27 16 29 17 1 18 30 19 31 20 32 21 39 22 33 23
REMARK SMILES IDX 38 24 34 25 37 26 35 27 36 28 22 29 23 30 24 31 25 32 13 33
REMARK SMILES IDX 14 34 15 35 20 36 16 37 19 38 17 39 18 40
REMARK H PARENT 8 10
ROOT
ATOM      1  C   UNL     1     -11.787   1.117 -11.665  1.00  0.00    +0.042 A 
ATOM      2  C   UNL     1     -13.120   1.514 -11.654  1.00  0.00    +0.026 A 
ATOM      3  C   UNL     1     -13.911   1.311 -10.519  1.00  0.00    +0.008 A 
ATOM      4  C   UNL     1     -13.388   0.708  -9.363  1.00  0.00    -0.022 A 
ATOM      5  C   UNL     1     -12.029   0.324  -9.350  1.00  0.00    +0.062 A 
ATOM      6  C   UNL     1     -11.253   0.527 -10.514  1.00  0.00    +0.039 A 
ENDROOT
BRANCH   1   7
ATOM      7  N   UNL     1     -10.921   1.281 -12.767  1.00  0.00    -0.322 N 
ATOM      8  C   UNL     1     -10.447   0.295 -13.614  1.00  0.00    +0.255 C 
ATOM      9  O   UNL     1     -10.640  -0.910 -13.522  1.00  0.00    -0.269 OA
ATOM     10  H   UNL     1     -10.559   2.215 -12.905  1.00  0.00    +0.170 HD
BRANCH   8  11
ATOM     11  C   UNL     1      -9.577   0.788 -14.719  1.00  0.00    +0.041 A 
ATOM     12  C   UNL     1      -7.968   1.791 -16.795  1.00  0.00    -0.035 A 
ATOM     13  C   UNL     1      -7.822   0.466 -16.354  1.00  0.00    +0.005 A 
ATOM     14  C   UNL     1      -8.922   2.618 -16.171  1.00  0.00    +0.029 A 
ATOM     15  C   UNL     1      -8.618  -0.034 -15.321  1.00  0.00    +0.014 A 
ATOM     16  C   UNL     1      -9.717   2.115 -15.135  1.00  0.00    +0.031 A 
ATOM     17  C   UNL     1      -9.101   3.980 -16.575  1.00  0.00    -0.060 C 
ATOM     18  C   UNL     1      -7.093   2.303 -17.908  1.00  0.00    +0.045 C 
BRANCH  17  19
ATOM     19  C   UNL     1      -9.239   5.120 -16.927  1.00  0.00    -0.040 C 
ATOM     20  C   UNL     1      -9.400   6.461 -17.362  1.00  0.00    +0.135 A 
ATOM     21  C   UNL     1      -9.480   7.606 -16.602  1.00  0.00    +0.151 A 
ATOM     22  N   UNL     1      -9.511   6.882 -18.666  1.00  0.00    -0.205 N 
ATOM     23  N   UNL     1      -9.638   8.721 -17.390  1.00  0.00    -0.234 NA
ATOM     24  N   UNL     1      -9.485   6.088 -19.784  1.00  0.00    -0.174 NA
ATOM     25  C   UNL     1      -9.652   8.263 -18.625  1.00  0.00    +0.154 A 
ATOM     26  C   UNL     1      -9.611   6.764 -20.882  1.00  0.00    +0.134 C 
ATOM     27  C   UNL     1      -9.786   8.938 -19.859  1.00  0.00    +0.051 C 
ATOM     28  C   UNL     1      -9.770   8.234 -20.998  1.00  0.00    +0.026 C 
ENDBRANCH  17  19
ENDBRANCH   8  11
ENDBRANCH   1   7
BRANCH   5  29
ATOM     29  C   UNL     1     -11.369  -0.323  -8.148  1.00  0.00    +0.416 C 
ATOM     30  F   UNL     1     -11.454   0.407  -7.000  1.00  0.00    -0.166 F 
ATOM     31  F   UNL     1     -10.024  -0.499  -8.339  1.00  0.00    -0.166 F 
ATOM     32  F   UNL     1     -11.848  -1.565  -7.867  1.00  0.00    -0.166 F 
ENDBRANCH   5  29
BRANCH   4  33
ATOM     33  C   UNL     1     -14.306   0.502  -8.172  1.00  0.00    +0.120 C 
BRANCH  33  34
ATOM     34  N   UNL     1     -15.431  -0.381  -8.481  1.00  0.00    -0.297 NA
ATOM     35  C   UNL     1     -16.476  -0.396  -7.434  1.00  0.00    +0.100 C 
ATOM     36  C   UNL     1     -14.954  -1.747  -8.784  1.00  0.00    +0.100 C 
ATOM     37  C   UNL     1     -16.444  -1.647  -6.526  1.00  0.00    +0.099 C 
ATOM     38  C   UNL     1     -16.055  -2.819  -8.633  1.00  0.00    +0.099 C 
ATOM     39  N   UNL     1     -16.621  -2.908  -7.272  1.00  0.00    -0.304 NA
ATOM     40  C   UNL     1     -16.077  -4.036  -6.522  1.00  0.00    +0.105 C 
ENDBRANCH  33  34
ENDBRANCH   4  33
TORSDOF 6
ENDMDL
MODEL 2
REMARK VINA RESULT:    -9.908      3.249     12.349
REMARK INTER + INTRA:         -14.421
REMARK INTER:                 -13.696
REMARK INTRA:                  -0.725
REMARK UNBOUND:                -1.037
REMARK SMILES Cc1ccc(C(=O)Nc2ccc(CN3CCN(C)CC3)c(C(F)(F)F)c2)cc1C#Cc1cnc2cccnn12
REMARK SMILES IDX 9 1 10 2 11 3 12 4 21 5 26 6 8 7 6 8 7 9 5 11 2 12 3 13
REMARK SMILES IDX 28 14 4 15 27 16 29 17 1 18 30 19 31 20 32 21 39 22 33 23
REMARK SMILES IDX 38 24 34 25 37 26 35 27 36 28 22 29 23 30 24 31 25 32 13 33
REMARK SMILES IDX 14 34 15 35 20 36 16 37 19 38 17 39 18 40
REMARK H PARENT 8 10
ROOT
ATOM      1  C   UNL     1     -10.817   2.233 -13.294  1.00  0.00    +0.042 A 
ATOM      2  C   UNL     1     -11.338   3.462 -13.684  1.00  0.00    +0.026 A 
ATOM      3  C   UNL     1     -10.894   4.081 -14.857  1.00  0.00    +0.008 A 
ATOM      4  C   UNL     1      -9.919   3.483 -15.673  1.00  0.00    -0.022 A 
ATOM      5  C   UNL     1      -9.400   2.223 -15.303  1.00  0.00    +0.062 A 
ATOM      6  C   UNL     1      -9.853   1.624 -14.106  1.00  0.00    +0.039 A 
ENDROOT
BRANCH   1   7
ATOM      7  N   UNL     1     -11.206   1.544 -12.126  1.00  0.00    -0.322 N 
ATOM      8  C   UNL     1     -12.474   1.478 -11.575  1.00  0.00    +0.255 C 
ATOM      9  O   UNL     1     -13.477   2.060 -11.966  1.00  0.00    -0.269 OA
ATOM     10  H   UNL     1     -10.458   1.108 -11.604  1.00  0.00    +0.170 HD
BRANCH   8  11
ATOM     11  C   UNL     1     -12.580   0.631 -10.354  1.00  0.00    +0.041 A 
ATOM     12  C   UNL     1     -12.860  -0.959  -8.051  1.00  0.00    -0.035 A 
ATOM     13  C   UNL     1     -11.611  -0.821  -8.677  1.00  0.00    +0.005 A 
ATOM     14  C   UNL     1     -13.977  -0.302  -8.603  1.00  0.00    +0.029 A 
ATOM     15  C   UNL     1     -11.470  -0.035  -9.824  1.00  0.00    +0.014 A 
ATOM     16  C   UNL     1     -13.834   0.484  -9.752  1.00  0.00    +0.031 A 
ATOM     17  C   UNL     1     -15.276  -0.419  -8.010  1.00  0.00    -0.060 C 
ATOM     18  C   UNL     1     -12.983  -1.815  -6.819  1.00  0.00    +0.045 C 
BRANCH  17  19
ATOM     19  C   UNL     1     -16.357  -0.529  -7.499  1.00  0.00    -0.040 C 
ATOM     20  C   UNL     1     -17.639  -0.639  -6.901  1.00  0.00    +0.135 A 
ATOM     21  C   UNL     1     -18.172  -1.700  -6.203  1.00  0.00    +0.151 A 
ATOM     22  N   UNL     1     -18.621   0.323  -6.905  1.00  0.00    -0.205 N 
ATOM     23  N   UNL     1     -19.450  -1.428  -5.777  1.00  0.00    -0.234 NA
ATOM     24  N   UNL     1     -18.544   1.564  -7.485  1.00  0.00    -0.174 NA
ATOM     25  C   UNL     1     -19.698  -0.208  -6.208  1.00  0.00    +0.154 A 
ATOM     26  C   UNL     1     -19.626   2.258  -7.328  1.00  0.00    +0.134 C 
ATOM     27  C   UNL     1     -20.848   0.603  -6.074  1.00  0.00    +0.051 C 
ATOM     28  C   UNL     1     -20.852   1.829  -6.613  1.00  0.00    +0.026 C 
ENDBRANCH  17  19
ENDBRANCH   8  11
ENDBRANCH   1   7
BRANCH   5  29
ATOM     29  C   UNL     1      -8.354   1.492 -16.123  1.00  0.00    +0.416 C 
ATOM     30  F   UNL     1      -8.756   1.165 -17.383  1.00  0.00    -0.166 F 
ATOM     31  F   UNL     1      -8.008   0.295 -15.554  1.00  0.00    -0.166 F 
ATOM     32  F   UNL     1      -7.182   2.174 -16.242  1.00  0.00    -0.166 F 
ENDBRANCH   5  29
BRANCH   4  33
ATOM     33  C   UNL     1      -9.469   4.216 -16.924  1.00  0.00    +0.120 C 
BRANCH  33  34
ATOM     34  N   UNL     1     -10.063   5.549 -17.034  1.00  0.00    -0.297 NA
ATOM     35  C   UNL     1     -11.081   5.655 -18.103  1.00  0.00    +0.100 C 
ATOM     36  C   UNL     1      -9.012   6.577 -17.188  1.00  0.00    +0.100 C 
ATOM     37  C   UNL     1     -10.581   6.362 -19.383  1.00  0.00    +0.099 C 
ATOM     38  C   UNL     1      -9.541   7.895 -17.792  1.00  0.00    +0.099 C 
ATOM     39  N   UNL     1     -10.124   7.745 -19.141  1.00  0.00    -0.304 NA
ATOM     40  C   UNL     1      -9.208   8.180 -20.189  1.00  0.00    +0.105 C 
ENDBRANCH  33  34
ENDBRANCH   4  33
TORSDOF 6
ENDMDL
MODEL 3
REMARK VINA RESULT:    -9.804      3.016      5.054
REMARK INTER + INTRA:         -14.280
REMARK INTER:                 -13.703
REMARK INTRA:                  -0.576
REMARK UNBOUND:                -1.037
REMARK SMILES Cc1ccc(C(=O)Nc2ccc(CN3CCN(C)CC3)c(C(F)(F)F)c2)cc1C#Cc1cnc2cccnn12
REMARK SMILES IDX 9 1 10 2 11 3 12 4 21 5 26 6 8 7 6 8 7 9 5 11 2 12 3 13
REMARK SMILES IDX 28 14 4 15 27 16 29 17 1 18 30 19 31 20 32 21 39 22 33 23
REMARK SMILES IDX 38 24 34 25 37 26 35 27 36 28 22 29 23 30 24 31 25 32 13 33
REMARK SMILES IDX 14 34 15 35 20 36 16 37 19 38 17 39 18 40
REMARK H PARENT 8 10
ROOT
ATOM      1  C   UNL     1     -12.724   1.404 -11.349  1.00  0.00    +0.042 A 
ATOM      2  C   UNL     1     -14.052   1.501 -10.949  1.00  0.00    +0.026 A 
ATOM      3  C   UNL     1     -14.526   0.742  -9.874  1.00  0.00    +0.008 A 
ATOM      4  C   UNL     1     -13.681  -0.131  -9.169  1.00  0.00    -0.022 A 
ATOM      5  C   UNL     1     -12.324  -0.220  -9.548  1.00  0.00    +0.062 A 
ATOM      6  C   UNL     1     -11.872   0.546 -10.645  1.00  0.00    +0.039 A 
ENDROOT
BRANCH   1   7
ATOM      7  N   UNL     1     -12.166   2.130 -12.423  1.00  0.00    -0.322 N 
ATOM      8  C   UNL     1     -12.801   3.066 -13.221  1.00  0.00    +0.255 C 
ATOM      9  O   UNL     1     -13.982   3.387 -13.182  1.00  0.00    -0.269 OA
ATOM     10  H   UNL     1     -11.218   1.885 -12.673  1.00  0.00    +0.170 HD
BRANCH   8  11
ATOM     11  C   UNL     1     -11.932   3.698 -14.252  1.00  0.00    +0.041 A 
ATOM     12  C   UNL     1     -10.241   4.829 -16.195  1.00  0.00    -0.035 A 
ATOM     13  C   UNL     1     -11.465   5.437 -15.870  1.00  0.00    +0.005 A 
ATOM     14  C   UNL     1      -9.879   3.634 -15.544  1.00  0.00    +0.029 A 
ATOM     15  C   UNL     1     -12.308   4.875 -14.909  1.00  0.00    +0.014 A 
ATOM     16  C   UNL     1     -10.726   3.072 -14.582  1.00  0.00    +0.031 A 
ATOM     17  C   UNL     1      -8.647   2.967 -15.847  1.00  0.00    -0.060 C 
ATOM     18  C   UNL     1      -9.355   5.455 -17.238  1.00  0.00    +0.045 C 
BRANCH  17  19
ATOM     19  C   UNL     1      -7.611   2.423 -16.113  1.00  0.00    -0.040 C 
ATOM     20  C   UNL     1      -6.394   1.762 -16.421  1.00  0.00    +0.135 A 
ATOM     21  C   UNL     1      -5.224   2.300 -16.909  1.00  0.00    +0.151 A 
ATOM     22  N   UNL     1      -6.145   0.416 -16.285  1.00  0.00    -0.205 N 
ATOM     23  N   UNL     1      -4.262   1.334 -17.082  1.00  0.00    -0.234 NA
ATOM     24  N   UNL     1      -7.024  -0.533 -15.827  1.00  0.00    -0.174 NA
ATOM     25  C   UNL     1      -4.835   0.212 -16.700  1.00  0.00    +0.154 A 
ATOM     26  C   UNL     1      -6.510  -1.722 -15.808  1.00  0.00    +0.134 C 
ATOM     27  C   UNL     1      -4.339  -1.110 -16.653  1.00  0.00    +0.051 C 
ATOM     28  C   UNL     1      -5.135  -2.095 -16.217  1.00  0.00    +0.026 C 
ENDBRANCH  17  19
ENDBRANCH   8  11
ENDBRANCH   1   7
BRANCH   5  29
ATOM     29  C   UNL     1     -11.331  -1.124  -8.842  1.00  0.00    +0.416 C 
ATOM     30  F   UNL     1     -11.010  -0.728  -7.579  1.00  0.00    -0.166 F 
ATOM     31  F   UNL     1     -10.131  -1.172  -9.500  1.00  0.00    -0.166 F 
ATOM     32  F   UNL     1     -11.738  -2.420  -8.762  1.00  0.00    -0.166 F 
ENDBRANCH   5  29
BRANCH   4  33
ATOM     33  C   UNL     1     -14.264  -0.939  -8.023  1.00  0.00    +0.120 C 
BRANCH  33  34
ATOM     34  N   UNL     1     -15.723  -0.845  -7.959  1.00  0.00    -0.297 NA
ATOM     35  C   UNL     1     -16.213  -0.037  -6.821  1.00  0.00    +0.100 C 
ATOM     36  C   UNL     1     -16.332  -2.192  -7.964  1.00  0.00    +0.100 C 
ATOM     37  C   UNL     1     -16.754  -0.872  -5.639  1.00  0.00    +0.099 C 
ATOM     38  C   UNL     1     -17.774  -2.204  -7.413  1.00  0.00    +0.099 C 
ATOM     39  N   UNL     1     -17.885  -1.743  -6.014  1.00  0.00    -0.304 NA
ATOM     40  C   UNL     1     -18.019  -2.854  -5.077  1.00  0.00    +0.105 C 
ENDBRANCH  33  34
ENDBRANCH   4  33
TORSDOF 6
ENDMDL
MODEL 4
REMARK VINA RESULT:    -9.798      4.073     12.222
REMARK INTER + INTRA:         -14.272
REMARK INTER:                 -13.776
REMARK INTRA:                  -0.496
REMARK UNBOUND:                -1.037
REMARK SMILES Cc1ccc(C(=O)Nc2ccc(CN3CCN(C)CC3)c(C(F)(F)F)c2)cc1C#Cc1cnc2cccnn12
REMARK SMILES IDX 9 1 10 2 11 3 12 4 21 5 26 6 8 7 6 8 7 9 5 11 2 12 3 13
REMARK SMILES IDX 28 14 4 15 27 16 29 17 1 18 30 19 31 20 32 21 39 22 33 23
REMARK SMILES IDX 38 24 34 25 37 26 35 27 36 28 22 29 23 30 24 31 25 32 13 33
REMARK SMILES IDX 14 34 15 35 20 36 16 37 19 38 17 39 18 40
REMARK H PARENT 8 10
ROOT
ATOM      1  C   UNL     1     -11.401   2.587 -13.471  1.00  0.00    +0.042 A 
ATOM      2  C   UNL     1     -11.818   3.841 -13.904  1.00  0.00    +0.026 A 
ATOM      3  C   UNL     1     -11.167   4.476 -14.967  1.00  0.00    +0.008 A 
ATOM      4  C   UNL     1     -10.086   3.870 -15.627  1.00  0.00    -0.022 A 
ATOM      5  C   UNL     1      -9.669   2.584 -15.216  1.00  0.00    +0.062 A 
ATOM      6  C   UNL     1     -10.332   1.969 -14.131  1.00  0.00    +0.039 A 
ENDROOT
BRANCH   1   7
ATOM      7  N   UNL     1     -11.998   1.879 -12.407  1.00  0.00    -0.322 N 
ATOM      8  C   UNL     1     -13.254   2.085 -11.864  1.00  0.00    +0.255 C 
ATOM      9  O   UNL     1     -14.052   2.963 -12.166  1.00  0.00    -0.269 OA
ATOM     10  H   UNL     1     -11.411   1.192 -11.952  1.00  0.00    +0.170 HD
BRANCH   8  11
ATOM     11  C   UNL     1     -13.623   1.144 -10.769  1.00  0.00    +0.041 A 
ATOM     12  C   UNL     1     -14.252  -0.676  -8.719  1.00  0.00    -0.035 A 
ATOM     13  C   UNL     1     -15.020   0.485  -8.905  1.00  0.00    +0.005 A 
ATOM     14  C   UNL     1     -13.151  -0.909  -9.565  1.00  0.00    +0.029 A 
ATOM     15  C   UNL     1     -14.707   1.393  -9.920  1.00  0.00    +0.014 A 
ATOM     16  C   UNL     1     -12.838   0.002 -10.580  1.00  0.00    +0.031 A 
ATOM     17  C   UNL     1     -12.328  -2.072  -9.410  1.00  0.00    -0.060 C 
ATOM     18  C   UNL     1     -14.610  -1.634  -7.615  1.00  0.00    +0.045 C 
BRANCH  17  19
ATOM     19  C   UNL     1     -11.650  -3.053  -9.265  1.00  0.00    -0.040 C 
ATOM     20  C   UNL     1     -10.865  -4.223  -9.099  1.00  0.00    +0.135 A 
ATOM     21  C   UNL     1      -9.542  -4.323  -8.733  1.00  0.00    +0.151 A 
ATOM     22  N   UNL     1     -11.292  -5.517  -9.277  1.00  0.00    -0.205 N 
ATOM     23  N   UNL     1      -9.135  -5.635  -8.680  1.00  0.00    -0.234 NA
ATOM     24  N   UNL     1     -12.551  -5.917  -9.646  1.00  0.00    -0.174 NA
ATOM     25  C   UNL     1     -10.201  -6.334  -9.009  1.00  0.00    +0.154 A 
ATOM     26  C   UNL     1     -12.662  -7.204  -9.735  1.00  0.00    +0.134 C 
ATOM     27  C   UNL     1     -10.392  -7.730  -9.126  1.00  0.00    +0.051 C 
ATOM     28  C   UNL     1     -11.593  -8.200  -9.482  1.00  0.00    +0.026 C 
ENDBRANCH  17  19
ENDBRANCH   8  11
ENDBRANCH   1   7
BRANCH   5  29
ATOM     29  C   UNL     1      -8.520   1.843 -15.873  1.00  0.00    +0.416 C 
ATOM     30  F   UNL     1      -7.323   2.489 -15.803  1.00  0.00    -0.166 F 
ATOM     31  F   UNL     1      -8.733   1.662 -17.214  1.00  0.00    -0.166 F 
ATOM     32  F   UNL     1      -8.327   0.591 -15.378  1.00  0.00    -0.166 F 
ENDBRANCH   5  29
BRANCH   4  33
ATOM     33  C   UNL     1      -9.413   4.621 -16.762  1.00  0.00    +0.120 C 
BRANCH  33  34
ATOM     34  N   UNL     1     -10.067   5.898 -17.052  1.00  0.00    -0.297 NA
ATOM     35  C   UNL     1     -11.066   5.818 -18.139  1.00  0.00    +0.100 C 
ATOM     36  C   UNL     1      -9.062   6.948 -17.320  1.00  0.00    +0.100 C 
ATOM     37  C   UNL     1     -10.574   6.379 -19.492  1.00  0.00    +0.099 C 
ATOM     38  C   UNL     1      -9.640   8.152 -18.096  1.00  0.00    +0.099 C 
ATOM     39  N   UNL     1     -10.188   7.802 -19.422  1.00  0.00    -0.304 NA
ATOM     40  C   UNL     1      -9.271   8.145 -20.505  1.00  0.00    +0.105 C 
ENDBRANCH  33  34
ENDBRANCH   4  33
TORSDOF 6
ENDMDL
MODEL 5
REMARK VINA RESULT:    -9.714      3.487     12.418
REMARK INTER + INTRA:         -14.158
REMARK INTER:                 -13.687
REMARK INTRA:                  -0.472
REMARK UNBOUND:                -1.037
REMARK SMILES Cc1ccc(C(=O)Nc2ccc(CN3CCN(C)CC3)c(C(F)(F)F)c2)cc1C#Cc1cnc2cccnn12
REMARK SMILES IDX 9 1 10 2 11 3 12 4 21 5 26 6 8 7 6 8 7 9 5 11 2 12 3 13
REMARK SMILES IDX 28 14 4 15 27 16 29 17 1 18 30 19 31 20 32 21 39 22 33 23
REMARK SMILES IDX 38 24 34 25 37 26 35 27 36 28 22 29 23 30 24 31 25 32 13 33
REMARK SMILES IDX 14 34 15 35 20 36 16 37 19 38 17 39 18 40
REMARK H PARENT 8 10
ROOT
ATOM      1  C   UNL     1     -10.259   2.131 -13.421  1.00  0.00    +0.042 A 
ATOM      2  C   UNL     1      -9.245   2.694 -14.188  1.00  0.00    +0.026 A 
ATOM      3  C   UNL     1      -9.517   3.761 -15.050  1.00  0.00    +0.008 A 
ATOM      4  C   UNL     1     -10.811   4.295 -15.164  1.00  0.00    -0.022 A 
ATOM      5  C   UNL     1     -11.845   3.751 -14.371  1.00  0.00    +0.062 A 
ATOM      6  C   UNL     1     -11.549   2.664 -13.518  1.00  0.00    +0.039 A 
ENDROOT
BRANCH   1   7
ATOM      7  N   UNL     1     -10.071   1.053 -12.530  1.00  0.00    -0.322 N 
ATOM      8  C   UNL     1     -10.105  -0.298 -12.831  1.00  0.00    +0.255 C 
ATOM      9  O   UNL     1     -10.368  -0.805 -13.913  1.00  0.00    -0.269 OA
ATOM     10  H   UNL     1      -9.968   1.302 -11.555  1.00  0.00    +0.170 HD
BRANCH   8  11
ATOM     11  C   UNL     1      -9.826  -1.200 -11.678  1.00  0.00    +0.041 A 
ATOM     12  C   UNL     1      -9.379  -2.914  -9.494  1.00  0.00    -0.035 A 
ATOM     13  C   UNL     1      -8.301  -2.410 -10.240  1.00  0.00    +0.005 A 
ATOM     14  C   UNL     1     -10.690  -2.562  -9.865  1.00  0.00    +0.029 A 
ATOM     15  C   UNL     1      -8.520  -1.562 -11.328  1.00  0.00    +0.014 A 
ATOM     16  C   UNL     1     -10.908  -1.712 -10.956  1.00  0.00    +0.031 A 
ATOM     17  C   UNL     1     -11.825  -3.058  -9.145  1.00  0.00    -0.060 C 
ATOM     18  C   UNL     1      -9.112  -3.830  -8.330  1.00  0.00    +0.045 C 
BRANCH  17  19
ATOM     19  C   UNL     1     -12.764  -3.483  -8.529  1.00  0.00    -0.040 C 
ATOM     20  C   UNL     1     -13.868  -4.005  -7.807  1.00  0.00    +0.135 A 
ATOM     21  C   UNL     1     -14.862  -3.319  -7.146  1.00  0.00    +0.151 A 
ATOM     22  N   UNL     1     -14.163  -5.335  -7.625  1.00  0.00    -0.205 N 
ATOM     23  N   UNL     1     -15.761  -4.178  -6.561  1.00  0.00    -0.234 NA
ATOM     24  N   UNL     1     -13.448  -6.401  -8.108  1.00  0.00    -0.174 NA
ATOM     25  C   UNL     1     -15.323  -5.383  -6.862  1.00  0.00    +0.154 A 
ATOM     26  C   UNL     1     -13.966  -7.542  -7.778  1.00  0.00    +0.134 C 
ATOM     27  C   UNL     1     -15.833  -6.660  -6.538  1.00  0.00    +0.051 C 
ATOM     28  C   UNL     1     -15.192  -7.752  -6.972  1.00  0.00    +0.026 C 
ENDBRANCH  17  19
ENDBRANCH   8  11
ENDBRANCH   1   7
BRANCH   5  29
ATOM     29  C   UNL     1     -13.271   4.265 -14.414  1.00  0.00    +0.416 C 
ATOM     30  F   UNL     1     -13.707   4.812 -13.245  1.00  0.00    -0.166 F 
ATOM     31  F   UNL     1     -14.166   3.261 -14.675  1.00  0.00    -0.166 F 
ATOM     32  F   UNL     1     -13.488   5.187 -15.391  1.00  0.00    -0.166 F 
ENDBRANCH   5  29
BRANCH   4  33
ATOM     33  C   UNL     1     -11.042   5.441 -16.132  1.00  0.00    +0.120 C 
BRANCH  33  34
ATOM     34  N   UNL     1      -9.879   5.697 -16.983  1.00  0.00    -0.297 NA
ATOM     35  C   UNL     1      -9.328   7.062 -16.836  1.00  0.00    +0.100 C 
ATOM     36  C   UNL     1     -10.190   5.391 -18.395  1.00  0.00    +0.100 C 
ATOM     37  C   UNL     1      -9.704   8.022 -17.987  1.00  0.00    +0.099 C 
ATOM     38  C   UNL     1      -9.228   6.079 -19.388  1.00  0.00    +0.099 C 
ATOM     39  N   UNL     1      -9.239   7.554 -19.307  1.00  0.00    -0.304 NA
ATOM     40  C   UNL     1     -10.025   8.158 -20.378  1.00  0.00    +0.105 C 
ENDBRANCH  33  34
ENDBRANCH   4  33
TORSDOF 6
ENDMDL
MODEL 6
REMARK VINA RESULT:    -9.576      3.112     11.984
REMARK INTER + INTRA:         -13.972
REMARK INTER:                 -13.122
REMARK INTRA:                  -0.850
REMARK UNBOUND:                -1.037
REMARK SMILES Cc1ccc(C(=O)Nc2ccc(CN3CCN(C)CC3)c(C(F)(F)F)c2)cc1C#Cc1cnc2cccnn12
REMARK SMILES IDX 9 1 10 2 11 3 12 4 21 5 26 6 8 7 6 8 7 9 5 11 2 12 3 13
REMARK SMILES IDX 28 14 4 15 27 16 29 17 1 18 30 19 31 20 32 21 39 22 33 23
REMARK SMILES IDX 38 24 34 25 37 26 35 27 36 28 22 29 23 30 24 31 25 32 13 33
REMARK SMILES IDX 14 34 15 35 20 36 16 37 19 38 17 39 18 40
REMARK H PARENT 8 10
ROOT
ATOM      1  C   UNL     1     -10.793   1.971 -13.046  1.00  0.00    +0.042 A 
ATOM      2  C   UNL     1      -9.719   2.419 -13.808  1.00  0.00    +0.026 A 
ATOM      3  C   UNL     1      -9.879   3.482 -14.702  1.00  0.00    +0.008 A 
ATOM      4  C   UNL     1     -11.116   4.129 -14.853  1.00  0.00    -0.022 A 
ATOM      5  C   UNL     1     -12.209   3.704 -14.065  1.00  0.00    +0.062 A 
ATOM      6  C   UNL     1     -12.027   2.618 -13.180  1.00  0.00    +0.039 A 
ENDROOT
BRANCH   1   7
ATOM      7  N   UNL     1     -10.720   0.905 -12.125  1.00  0.00    -0.322 N 
ATOM      8  C   UNL     1     -10.496  -0.431 -12.407  1.00  0.00    +0.255 C 
ATOM      9  O   UNL     1     -10.385  -0.942 -13.514  1.00  0.00    -0.269 OA
ATOM     10  H   UNL     1     -10.920   1.141 -11.163  1.00  0.00    +0.170 HD
BRANCH   8  11
ATOM     11  C   UNL     1     -10.430  -1.318 -11.211  1.00  0.00    +0.041 A 
ATOM     12  C   UNL     1     -10.385  -2.988  -8.949  1.00  0.00    -0.035 A 
ATOM     13  C   UNL     1      -9.207  -2.724  -9.667  1.00  0.00    +0.005 A 
ATOM     14  C   UNL     1     -11.595  -2.417  -9.388  1.00  0.00    +0.029 A 
ATOM     15  C   UNL     1      -9.227  -1.898 -10.793  1.00  0.00    +0.014 A 
ATOM     16  C   UNL     1     -11.613  -1.591 -10.518  1.00  0.00    +0.031 A 
ATOM     17  C   UNL     1     -12.826  -2.665  -8.699  1.00  0.00    -0.060 C 
ATOM     18  C   UNL     1     -10.333  -3.886  -7.742  1.00  0.00    +0.045 C 
BRANCH  17  19
ATOM     19  C   UNL     1     -13.849  -2.883  -8.109  1.00  0.00    -0.040 C 
ATOM     20  C   UNL     1     -15.062  -3.120  -7.413  1.00  0.00    +0.135 A 
ATOM     21  C   UNL     1     -15.532  -4.303  -6.887  1.00  0.00    +0.151 A 
ATOM     22  N   UNL     1     -16.026  -2.185  -7.121  1.00  0.00    -0.205 N 
ATOM     23  N   UNL     1     -16.754  -4.132  -6.283  1.00  0.00    -0.234 NA
ATOM     24  N   UNL     1     -15.994  -0.853  -7.448  1.00  0.00    -0.174 NA
ATOM     25  C   UNL     1     -17.031  -2.853  -6.434  1.00  0.00    +0.154 A 
ATOM     26  C   UNL     1     -17.045  -0.213  -7.042  1.00  0.00    +0.134 C 
ATOM     27  C   UNL     1     -18.149  -2.095  -6.021  1.00  0.00    +0.051 C 
ATOM     28  C   UNL     1     -18.194  -0.786  -6.301  1.00  0.00    +0.026 C 
ENDBRANCH  17  19
ENDBRANCH   8  11
ENDBRANCH   1   7
BRANCH   5  29
ATOM     29  C   UNL     1     -13.580   4.345 -14.147  1.00  0.00    +0.416 C 
ATOM     30  F   UNL     1     -13.657   5.581 -13.578  1.00  0.00    -0.166 F 
ATOM     31  F   UNL     1     -14.527   3.607 -13.488  1.00  0.00    -0.166 F 
ATOM     32  F   UNL     1     -14.052   4.462 -15.418  1.00  0.00    -0.166 F 
ENDBRANCH   5  29
BRANCH   4  33
ATOM     33  C   UNL     1     -11.225   5.266 -15.854  1.00  0.00    +0.120 C 
BRANCH  33  34
ATOM     34  N   UNL     1      -9.963   5.522 -16.548  1.00  0.00    -0.297 NA
ATOM     35  C   UNL     1      -9.594   6.953 -16.597  1.00  0.00    +0.100 C 
ATOM     36  C   UNL     1      -9.982   4.924 -17.900  1.00  0.00    +0.100 C 
ATOM     37  C   UNL     1      -9.859   7.627 -17.963  1.00  0.00    +0.099 C 
ATOM     38  C   UNL     1      -8.937   5.547 -18.850  1.00  0.00    +0.099 C 
ATOM     39  N   UNL     1      -9.119   6.996 -19.073  1.00  0.00    -0.304 NA
ATOM     40  C   UNL     1      -9.760   7.280 -20.353  1.00  0.00    +0.105 C 
ENDBRANCH  33  34
ENDBRANCH   4  33
TORSDOF 6
ENDMDL
MODEL 7
REMARK VINA RESULT:    -9.500      1.888      2.395
REMARK INTER + INTRA:         -13.869
REMARK INTER:                 -13.028
REMARK INTRA:                  -0.841
REMARK UNBOUND:                -1.037
REMARK SMILES Cc1ccc(C(=O)Nc2ccc(CN3CCN(C)CC3)c(C(F)(F)F)c2)cc1C#Cc1cnc2cccnn12
REMARK SMILES IDX 9 1 10 2 11 3 12 4 21 5 26 6 8 7 6 8 7 9 5 11 2 12 3 13
REMARK SMILES IDX 28 14 4 15 27 16 29 17 1 18 30 19 31 20 32 21 39 22 33 23
REMARK SMILES IDX 38 24 34 25 37 26 35 27 36 28 22 29 23 30 24 31 25 32 13 33
REMARK SMILES IDX 14 34 15 35 20 36 16 37 19 38 17 39 18 40
REMARK H PARENT 8 10
ROOT
ATOM      1  C   UNL     1     -11.647  -0.316 -10.426  1.00  0.00    +0.042 A 
ATOM      2  C   UNL     1     -11.535   0.359  -9.215  1.00  0.00    +0.026 A 
ATOM      3  C   UNL     1     -12.175  -0.128  -8.071  1.00  0.00    +0.008 A 
ATOM      4  C   UNL     1     -12.940  -1.305  -8.107  1.00  0.00    -0.022 A 
ATOM      5  C   UNL     1     -13.040  -2.016  -9.324  1.00  0.00    +0.062 A 
ATOM      6  C   UNL     1     -12.398  -1.497 -10.470  1.00  0.00    +0.039 A 
ENDROOT
BRANCH   1   7
ATOM      7  N   UNL     1     -11.039   0.107 -11.626  1.00  0.00    -0.322 N 
ATOM      8  C   UNL     1     -11.415   1.171 -12.427  1.00  0.00    +0.255 C 
ATOM      9  O   UNL     1     -12.386   1.901 -12.273  1.00  0.00    -0.269 OA
ATOM     10  H   UNL     1     -10.287  -0.477 -11.967  1.00  0.00    +0.170 HD
BRANCH   8  11
ATOM     11  C   UNL     1     -10.545   1.396 -13.616  1.00  0.00    +0.041 A 
ATOM     12  C   UNL     1      -8.922   1.897 -15.857  1.00  0.00    -0.035 A 
ATOM     13  C   UNL     1      -8.938   0.629 -15.255  1.00  0.00    +0.005 A 
ATOM     14  C   UNL     1      -9.720   2.922 -15.312  1.00  0.00    +0.029 A 
ATOM     15  C   UNL     1      -9.741   0.378 -14.139  1.00  0.00    +0.014 A 
ATOM     16  C   UNL     1     -10.522   2.669 -14.193  1.00  0.00    +0.031 A 
ATOM     17  C   UNL     1      -9.731   4.237 -15.881  1.00  0.00    -0.060 C 
ATOM     18  C   UNL     1      -8.045   2.139 -17.056  1.00  0.00    +0.045 C 
BRANCH  17  19
ATOM     19  C   UNL     1      -9.728   5.333 -16.371  1.00  0.00    -0.040 C 
ATOM     20  C   UNL     1      -9.723   6.619 -16.969  1.00  0.00    +0.135 A 
ATOM     21  C   UNL     1      -9.713   7.852 -16.354  1.00  0.00    +0.151 A 
ATOM     22  N   UNL     1      -9.728   6.887 -18.317  1.00  0.00    -0.205 N 
ATOM     23  N   UNL     1      -9.713   8.872 -17.275  1.00  0.00    -0.234 NA
ATOM     24  N   UNL     1      -9.737   5.963 -19.331  1.00  0.00    -0.174 NA
ATOM     25  C   UNL     1      -9.721   8.270 -18.446  1.00  0.00    +0.154 A 
ATOM     26  C   UNL     1      -9.739   6.510 -20.506  1.00  0.00    +0.134 C 
ATOM     27  C   UNL     1      -9.724   8.799 -19.757  1.00  0.00    +0.051 C 
ATOM     28  C   UNL     1      -9.733   7.962 -20.802  1.00  0.00    +0.026 C 
ENDBRANCH  17  19
ENDBRANCH   8  11
ENDBRANCH   1   7
BRANCH   5  29
ATOM     29  C   UNL     1     -13.833  -3.301  -9.462  1.00  0.00    +0.416 C 
ATOM     30  F   UNL     1     -13.463  -4.284  -8.594  1.00  0.00    -0.166 F 
ATOM     31  F   UNL     1     -13.676  -3.865 -10.701  1.00  0.00    -0.166 F 
ATOM     32  F   UNL     1     -15.175  -3.130  -9.324  1.00  0.00    -0.166 F 
ENDBRANCH   5  29
BRANCH   4  33
ATOM     33  C   UNL     1     -13.622  -1.769  -6.833  1.00  0.00    +0.120 C 
BRANCH  33  34
ATOM     34  N   UNL     1     -14.683  -0.857  -6.403  1.00  0.00    -0.297 NA
ATOM     35  C   UNL     1     -15.493  -1.378  -5.281  1.00  0.00    +0.100 C 
ATOM     36  C   UNL     1     -15.535  -0.474  -7.549  1.00  0.00    +0.100 C 
ATOM     37  C   UNL     1     -16.875  -1.927  -5.700  1.00  0.00    +0.099 C 
ATOM     38  C   UNL     1     -16.919   0.059  -7.121  1.00  0.00    +0.099 C 
ATOM     39  N   UNL     1     -17.725  -0.914  -6.356  1.00  0.00    -0.304 NA
ATOM     40  C   UNL     1     -18.748  -1.550  -7.180  1.00  0.00    +0.105 C 
ENDBRANCH  33  34
ENDBRANCH   4  33
TORSDOF 6
ENDMDL
MODEL 8
REMARK VINA RESULT:    -9.469      3.085      5.228
REMARK INTER + INTRA:         -13.828
REMARK INTER:                 -13.863
REMARK INTRA:                   0.034
REMARK UNBOUND:                -1.037
REMARK SMILES Cc1ccc(C(=O)Nc2ccc(CN3CCN(C)CC3)c(C(F)(F)F)c2)cc1C#Cc1cnc2cccnn12
REMARK SMILES IDX 9 1 10 2 11 3 12 4 21 5 26 6 8 7 6 8 7 9 5 11 2 12 3 13
REMARK SMILES IDX 28 14 4 15 27 16 29 17 1 18 30 19 31 20 32 21 39 22 33 23
REMARK SMILES IDX 38 24 34 25 37 26 35 27 36 28 22 29 23 30 24 31 25 32 13 33
REMARK SMILES IDX 14 34 15 35 20 36 16 37 19 38 17 39 18 40
REMARK H PARENT 8 10
ROOT
ATOM      1  C   UNL     1     -12.758   1.484 -11.349  1.00  0.00    +0.042 A 
ATOM      2  C   UNL     1     -14.119   1.474 -11.062  1.00  0.00    +0.026 A 
ATOM      3  C   UNL     1     -14.610   0.738  -9.980  1.00  0.00    +0.008 A 
ATOM      4  C   UNL     1     -13.750  -0.004  -9.152  1.00  0.00    -0.022 A 
ATOM      5  C   UNL     1     -12.363   0.019  -9.415  1.00  0.00    +0.062 A 
ATOM      6  C   UNL     1     -11.892   0.758 -10.523  1.00  0.00    +0.039 A 
ENDROOT
BRANCH   1   7
ATOM      7  N   UNL     1     -12.181   2.196 -12.422  1.00  0.00    -0.322 N 
ATOM      8  C   UNL     1     -12.795   3.139 -13.228  1.00  0.00    +0.255 C 
ATOM      9  O   UNL     1     -13.970   3.480 -13.199  1.00  0.00    -0.269 OA
ATOM     10  H   UNL     1     -11.235   1.934 -12.664  1.00  0.00    +0.170 HD
BRANCH   8  11
ATOM     11  C   UNL     1     -11.908   3.752 -14.257  1.00  0.00    +0.041 A 
ATOM     12  C   UNL     1     -10.185   4.846 -16.191  1.00  0.00    -0.035 A 
ATOM     13  C   UNL     1     -11.412   5.461 -15.897  1.00  0.00    +0.005 A 
ATOM     14  C   UNL     1      -9.834   3.662 -15.514  1.00  0.00    +0.029 A 
ATOM     15  C   UNL     1     -12.272   4.917 -14.940  1.00  0.00    +0.014 A 
ATOM     16  C   UNL     1     -10.698   3.118 -14.556  1.00  0.00    +0.031 A 
ATOM     17  C   UNL     1      -8.599   2.989 -15.785  1.00  0.00    -0.060 C 
ATOM     18  C   UNL     1      -9.280   5.452 -17.231  1.00  0.00    +0.045 C 
BRANCH  17  19
ATOM     19  C   UNL     1      -7.559   2.438 -16.025  1.00  0.00    -0.040 C 
ATOM     20  C   UNL     1      -6.339   1.770 -16.303  1.00  0.00    +0.135 A 
ATOM     21  C   UNL     1      -5.142   2.307 -16.719  1.00  0.00    +0.151 A 
ATOM     22  N   UNL     1      -6.115   0.417 -16.205  1.00  0.00    -0.205 N 
ATOM     23  N   UNL     1      -4.185   1.334 -16.884  1.00  0.00    -0.234 NA
ATOM     24  N   UNL     1      -7.026  -0.534 -15.822  1.00  0.00    -0.174 NA
ATOM     25  C   UNL     1      -4.791   0.208 -16.569  1.00  0.00    +0.154 A 
ATOM     26  C   UNL     1      -6.531  -1.731 -15.823  1.00  0.00    +0.134 C 
ATOM     27  C   UNL     1      -4.316  -1.123 -16.548  1.00  0.00    +0.051 C 
ATOM     28  C   UNL     1      -5.144  -2.110 -16.185  1.00  0.00    +0.026 C 
ENDBRANCH  17  19
ENDBRANCH   8  11
ENDBRANCH   1   7
BRANCH   5  29
ATOM     29  C   UNL     1     -11.354  -0.740  -8.574  1.00  0.00    +0.416 C 
ATOM     30  F   UNL     1     -11.776  -1.020  -7.309  1.00  0.00    -0.166 F 
ATOM     31  F   UNL     1     -10.200  -0.024  -8.397  1.00  0.00    -0.166 F 
ATOM     32  F   UNL     1     -10.954  -1.914  -9.131  1.00  0.00    -0.166 F 
ENDBRANCH   5  29
BRANCH   4  33
ATOM     33  C   UNL     1     -14.350  -0.796  -8.004  1.00  0.00    +0.120 C 
BRANCH  33  34
ATOM     34  N   UNL     1     -14.732  -2.152  -8.400  1.00  0.00    -0.297 NA
ATOM     35  C   UNL     1     -14.432  -3.174  -7.374  1.00  0.00    +0.100 C 
ATOM     36  C   UNL     1     -14.128  -2.503  -9.702  1.00  0.00    +0.100 C 
ATOM     37  C   UNL     1     -13.175  -4.021  -7.674  1.00  0.00    +0.099 C 
ATOM     38  C   UNL     1     -14.066  -4.026  -9.948  1.00  0.00    +0.099 C 
ATOM     39  N   UNL     1     -13.266  -4.762  -8.948  1.00  0.00    -0.304 NA
ATOM     40  C   UNL     1     -11.937  -5.102  -9.447  1.00  0.00    +0.105 C 
ENDBRANCH  33  34
ENDBRANCH   4  33
TORSDOF 6
ENDMDL
MODEL 9
REMARK VINA RESULT:    -9.412      3.230      5.356
REMARK INTER + INTRA:         -13.751
REMARK INTER:                 -13.160
REMARK INTRA:                  -0.590
REMARK UNBOUND:                -1.037
REMARK SMILES Cc1ccc(C(=O)Nc2ccc(CN3CCN(C)CC3)c(C(F)(F)F)c2)cc1C#Cc1cnc2cccnn12
REMARK SMILES IDX 9 1 10 2 11 3 12 4 21 5 26 6 8 7 6 8 7 9 5 11 2 12 3 13
REMARK SMILES IDX 28 14 4 15 27 16 29 17 1 18 30 19 31 20 32 21 39 22 33 23
REMARK SMILES IDX 38 24 34 25 37 26 35 27 36 28 22 29 23 30 24 31 25 32 13 33
REMARK SMILES IDX 14 34 15 35 20 36 16 37 19 38 17 39 18 40
REMARK H PARENT 8 10
ROOT
ATOM      1  C   UNL     1     -12.050   0.042 -10.492  1.00  0.00    +0.042 A 
ATOM      2  C   UNL     1     -11.656  -1.291 -10.451  1.00  0.00    +0.026 A 
ATOM      3  C   UNL     1     -11.974  -2.091  -9.349  1.00  0.00    +0.008 A 
ATOM      4  C   UNL     1     -12.699  -1.578  -8.260  1.00  0.00    -0.022 A 
ATOM      5  C   UNL     1     -13.130  -0.234  -8.301  1.00  0.00    +0.062 A 
ATOM      6  C   UNL     1     -12.785   0.559  -9.418  1.00  0.00    +0.039 A 
ENDROOT
BRANCH   1   7
ATOM      7  N   UNL     1     -11.769   0.918 -11.562  1.00  0.00    -0.322 N 
ATOM      8  C   UNL     1     -12.594   1.902 -12.078  1.00  0.00    +0.255 C 
ATOM      9  O   UNL     1     -13.744   2.150 -11.741  1.00  0.00    -0.269 OA
ATOM     10  H   UNL     1     -10.894   0.757 -12.042  1.00  0.00    +0.170 HD
BRANCH   8  11
ATOM     11  C   UNL     1     -11.997   2.698 -13.187  1.00  0.00    +0.041 A 
ATOM     12  C   UNL     1     -10.819   4.139 -15.295  1.00  0.00    -0.035 A 
ATOM     13  C   UNL     1     -11.948   4.642 -14.629  1.00  0.00    +0.005 A 
ATOM     14  C   UNL     1     -10.293   2.893 -14.904  1.00  0.00    +0.029 A 
ATOM     15  C   UNL     1     -12.537   3.926 -13.583  1.00  0.00    +0.014 A 
ATOM     16  C   UNL     1     -10.886   2.177 -13.857  1.00  0.00    +0.031 A 
ATOM     17  C   UNL     1      -9.150   2.330 -15.559  1.00  0.00    -0.060 C 
ATOM     18  C   UNL     1     -10.208   4.930 -16.421  1.00  0.00    +0.045 C 
BRANCH  17  19
ATOM     19  C   UNL     1      -8.192   1.873 -16.120  1.00  0.00    -0.040 C 
ATOM     20  C   UNL     1      -7.060   1.318 -16.770  1.00  0.00    +0.135 A 
ATOM     21  C   UNL     1      -6.289   1.867 -17.770  1.00  0.00    +0.151 A 
ATOM     22  N   UNL     1      -6.501   0.087 -16.516  1.00  0.00    -0.205 N 
ATOM     23  N   UNL     1      -5.274   1.019 -18.144  1.00  0.00    -0.234 NA
ATOM     24  N   UNL     1      -6.933  -0.828 -15.590  1.00  0.00    -0.174 NA
ATOM     25  C   UNL     1      -5.420  -0.043 -17.378  1.00  0.00    +0.154 A 
ATOM     26  C   UNL     1      -6.210  -1.902 -15.573  1.00  0.00    +0.134 C 
ATOM     27  C   UNL     1      -4.674  -1.241 -17.307  1.00  0.00    +0.051 C 
ATOM     28  C   UNL     1      -5.031  -2.185 -16.427  1.00  0.00    +0.026 C 
ENDBRANCH  17  19
ENDBRANCH   8  11
ENDBRANCH   1   7
BRANCH   5  29
ATOM     29  C   UNL     1     -13.928   0.407  -7.181  1.00  0.00    +0.416 C 
ATOM     30  F   UNL     1     -14.509   1.594  -7.514  1.00  0.00    -0.166 F 
ATOM     31  F   UNL     1     -13.139   0.705  -6.102  1.00  0.00    -0.166 F 
ATOM     32  F   UNL     1     -14.910  -0.393  -6.686  1.00  0.00    -0.166 F 
ENDBRANCH   5  29
BRANCH   4  33
ATOM     33  C   UNL     1     -12.996  -2.496  -7.088  1.00  0.00    +0.120 C 
BRANCH  33  34
ATOM     34  N   UNL     1     -13.869  -3.610  -7.458  1.00  0.00    -0.297 NA
ATOM     35  C   UNL     1     -15.209  -3.184  -7.920  1.00  0.00    +0.100 C 
ATOM     36  C   UNL     1     -13.967  -4.585  -6.350  1.00  0.00    +0.100 C 
ATOM     37  C   UNL     1     -16.327  -3.363  -6.868  1.00  0.00    +0.099 C 
ATOM     38  C   UNL     1     -15.209  -5.495  -6.456  1.00  0.00    +0.099 C 
ATOM     39  N   UNL     1     -16.492  -4.764  -6.431  1.00  0.00    -0.304 NA
ATOM     40  C   UNL     1     -17.138  -4.827  -5.125  1.00  0.00    +0.105 C 
ENDBRANCH  33  34
ENDBRANCH   4  33
TORSDOF 6
ENDMDL
MODEL 10
REMARK VINA RESULT:    -9.390      3.470      5.448
REMARK INTER + INTRA:         -13.721
REMARK INTER:                 -12.588
REMARK INTRA:                  -1.133
REMARK UNBOUND:                -1.037
REMARK SMILES Cc1ccc(C(=O)Nc2ccc(CN3CCN(C)CC3)c(C(F)(F)F)c2)cc1C#Cc1cnc2cccnn12
REMARK SMILES IDX 9 1 10 2 11 3 12 4 21 5 26 6 8 7 6 8 7 9 5 11 2 12 3 13
REMARK SMILES IDX 28 14 4 15 27 16 29 17 1 18 30 19 31 20 32 21 39 22 33 23
REMARK SMILES IDX 38 24 34 25 37 26 35 27 36 28 22 29 23 30 24 31 25 32 13 33
REMARK SMILES IDX 14 34 15 35 20 36 16 37 19 38 17 39 18 40
REMARK H PARENT 8 10
ROOT
ATOM      1  C   UNL     1     -11.820  -0.065 -10.540  1.00  0.00    +0.042 A 
ATOM      2  C   UNL     1     -11.923   0.314  -9.205  1.00  0.00    +0.026 A 
ATOM      3  C   UNL     1     -12.223  -0.632  -8.221  1.00  0.00    +0.008 A 
ATOM      4  C   UNL     1     -12.423  -1.984  -8.545  1.00  0.00    -0.022 A 
ATOM      5  C   UNL     1     -12.293  -2.389  -9.892  1.00  0.00    +0.062 A 
ATOM      6  C   UNL     1     -12.005  -1.412 -10.871  1.00  0.00    +0.039 A 
ENDROOT
BRANCH   1   7
ATOM      7  N   UNL     1     -11.524   0.825 -11.594  1.00  0.00    -0.322 N 
ATOM      8  C   UNL     1     -12.319   1.854 -12.069  1.00  0.00    +0.255 C 
ATOM      9  O   UNL     1     -13.452   2.139 -11.703  1.00  0.00    -0.269 OA
ATOM     10  H   UNL     1     -10.666   0.642 -12.096  1.00  0.00    +0.170 HD
BRANCH   8  11
ATOM     11  C   UNL     1     -11.712   2.652 -13.172  1.00  0.00    +0.041 A 
ATOM     12  C   UNL     1     -10.511   4.102 -15.260  1.00  0.00    -0.035 A 
ATOM     13  C   UNL     1     -11.728   4.525 -14.704  1.00  0.00    +0.005 A 
ATOM     14  C   UNL     1      -9.906   2.929 -14.768  1.00  0.00    +0.029 A 
ATOM     15  C   UNL     1     -12.329   3.805 -13.669  1.00  0.00    +0.014 A 
ATOM     16  C   UNL     1     -10.510   2.208 -13.732  1.00  0.00    +0.031 A 
ATOM     17  C   UNL     1      -8.670   2.447 -15.309  1.00  0.00    -0.060 C 
ATOM     18  C   UNL     1      -9.888   4.896 -16.377  1.00  0.00    +0.045 C 
BRANCH  17  19
ATOM     19  C   UNL     1      -7.633   2.059 -15.774  1.00  0.00    -0.040 C 
ATOM     20  C   UNL     1      -6.413   1.581 -16.316  1.00  0.00    +0.135 A 
ATOM     21  C   UNL     1      -5.410   2.294 -16.934  1.00  0.00    +0.151 A 
ATOM     22  N   UNL     1      -5.988   0.273 -16.329  1.00  0.00    -0.205 N 
ATOM     23  N   UNL     1      -4.381   1.474 -17.329  1.00  0.00    -0.234 NA
ATOM     24  N   UNL     1      -6.662  -0.807 -15.819  1.00  0.00    -0.174 NA
ATOM     25  C   UNL     1      -4.748   0.266 -16.955  1.00  0.00    +0.154 A 
ATOM     26  C   UNL     1      -6.015  -1.919 -15.974  1.00  0.00    +0.134 C 
ATOM     27  C   UNL     1      -4.098  -0.982 -17.091  1.00  0.00    +0.051 C 
ATOM     28  C   UNL     1      -4.690  -2.085 -16.618  1.00  0.00    +0.026 C 
ENDBRANCH  17  19
ENDBRANCH   8  11
ENDBRANCH   1   7
BRANCH   5  29
ATOM     29  C   UNL     1     -12.478  -3.826 -10.341  1.00  0.00    +0.416 C 
ATOM     30  F   UNL     1     -11.584  -4.701  -9.803  1.00  0.00    -0.166 F 
ATOM     31  F   UNL     1     -12.315  -3.961 -11.694  1.00  0.00    -0.166 F 
ATOM     32  F   UNL     1     -13.721  -4.318 -10.088  1.00  0.00    -0.166 F 
ENDBRANCH   5  29
BRANCH   4  33
ATOM     33  C   UNL     1     -12.762  -2.957  -7.430  1.00  0.00    +0.120 C 
BRANCH  33  34
ATOM     34  N   UNL     1     -13.995  -2.595  -6.730  1.00  0.00    -0.297 NA
ATOM     35  C   UNL     1     -14.019  -3.024  -5.315  1.00  0.00    +0.100 C 
ATOM     36  C   UNL     1     -15.177  -3.096  -7.464  1.00  0.00    +0.100 C 
ATOM     37  C   UNL     1     -14.876  -4.283  -5.050  1.00  0.00    +0.099 C 
ATOM     38  C   UNL     1     -16.439  -3.196  -6.580  1.00  0.00    +0.099 C 
ATOM     39  N   UNL     1     -16.292  -4.109  -5.428  1.00  0.00    -0.304 NA
ATOM     40  C   UNL     1     -16.928  -5.401  -5.665  1.00  0.00    +0.105 C 
ENDBRANCH  33  34
ENDBRANCH   4  33
TORSDOF 6
ENDMDL
