MODEL 1
REMARK VINA RESULT:    -9.781      0.000      0.000
REMARK INTER + INTRA:         -15.900
REMARK INTER:                 -14.927
REMARK INTRA:                  -0.973
REMARK UNBOUND:                -0.973
REMARK SMILES COC(=O)c1ccc2c(c1)NC(=O)/C2=C(\Nc1ccc(N(C)C(=O)CN2CCN(C)CC2)cc1)c1ccccc1
REMARK SMILES IDX 17 1 18 2 19 3 20 4 33 5 34 6 16 7 15 9 5 10 6 11 10 12 7 13
REMARK SMILES IDX 9 14 8 15 11 16 14 17 12 18 13 19 3 21 4 22 2 23 1 24 35 25
REMARK SMILES IDX 36 26 40 27 37 28 39 29 38 30 21 31 22 32 23 33 24 34 25 35
REMARK SMILES IDX 26 36 27 37 32 38 28 39 31 40 29 41 30 42
REMARK H PARENT 16 8 11 20
ROOT
ATOM      1  C   UNL     1     -11.093   1.498 -12.762  1.00  0.00    +0.039 A 
ATOM      2  C   UNL     1     -10.481   0.413 -13.384  1.00  0.00    +0.028 A 
ATOM      3  C   UNL     1     -10.405  -0.834 -12.746  1.00  0.00    +0.028 A 
ATOM      4  C   UNL     1     -10.939  -1.040 -11.463  1.00  0.00    +0.043 A 
ATOM      5  C   UNL     1     -11.559   0.057 -10.853  1.00  0.00    +0.028 A 
ATOM      6  C   UNL     1     -11.636   1.305 -11.491  1.00  0.00    +0.028 A 
ENDROOT
BRANCH   1   7
ATOM      7  N   UNL     1     -11.231   2.752 -13.399  1.00  0.00    -0.354 N 
ATOM      8  H   UNL     1     -12.223   2.963 -13.564  1.00  0.00    +0.167 HD
BRANCH   7   9
ATOM      9  C   UNL     1     -10.440   3.215 -14.461  1.00  0.00    +0.059 C 
ATOM     10  C   UNL     1      -9.581   6.525 -18.630  1.00  0.00    +0.062 A 
ATOM     11  C   UNL     1      -8.642   5.580 -18.163  1.00  0.00    +0.016 A 
ATOM     12  C   UNL     1     -10.826   6.643 -18.000  1.00  0.00    +0.042 A 
ATOM     13  C   UNL     1      -8.932   4.748 -17.069  1.00  0.00    +0.012 A 
ATOM     14  C   UNL     1     -11.083   5.811 -16.927  1.00  0.00    +0.050 A 
ATOM     15  C   UNL     1     -10.164   4.867 -16.449  1.00  0.00    +0.013 A 
ATOM     16  N   UNL     1     -12.255   5.781 -16.181  1.00  0.00    -0.321 N 
ATOM     17  C   UNL     1     -10.821   4.199 -15.309  1.00  0.00    +0.073 C 
ATOM     18  C   UNL     1     -12.190   4.827 -15.184  1.00  0.00    +0.258 C 
ATOM     19  O   UNL     1     -13.062   4.542 -14.383  1.00  0.00    -0.269 OA
ATOM     20  H   UNL     1     -13.069   6.357 -16.333  1.00  0.00    +0.170 HD
BRANCH  10  21
ATOM     21  C   UNL     1      -9.300   7.420 -19.786  1.00  0.00    +0.337 C 
ATOM     22  O   UNL     1      -9.092   8.617 -19.670  1.00  0.00    -0.246 OA
BRANCH  21  23
ATOM     23  O   UNL     1      -9.313   6.722 -20.948  1.00  0.00    -0.465 OA
ATOM     24  C   UNL     1     -10.323   7.145 -21.867  1.00  0.00    +0.282 C 
ENDBRANCH  21  23
ENDBRANCH  10  21
BRANCH   9  25
ATOM     25  C   UNL     1      -9.098   2.614 -14.624  1.00  0.00    -0.001 A 
ATOM     26  C   UNL     1      -8.047   2.977 -13.770  1.00  0.00    +0.010 A 
ATOM     27  C   UNL     1      -8.869   1.670 -15.636  1.00  0.00    +0.010 A 
ATOM     28  C   UNL     1      -6.786   2.399 -13.924  1.00  0.00    +0.001 A 
ATOM     29  C   UNL     1      -7.606   1.094 -15.785  1.00  0.00    +0.001 A 
ATOM     30  C   UNL     1      -6.567   1.457 -14.929  1.00  0.00    +0.000 A 
ENDBRANCH   9  25
ENDBRANCH   7   9
ENDBRANCH   1   7
BRANCH   4  31
ATOM     31  N   UNL     1     -10.863  -2.338 -10.830  1.00  0.00    -0.314 N 
ATOM     32  C   UNL     1      -9.900  -2.483  -9.735  1.00  0.00    +0.153 C 
BRANCH  31  33
ATOM     33  C   UNL     1     -11.747  -3.390 -11.176  1.00  0.00    +0.240 C 
ATOM     34  O   UNL     1     -11.870  -3.837 -12.319  1.00  0.00    -0.273 OA
BRANCH  33  35
ATOM     35  C   UNL     1     -12.594  -3.965 -10.012  1.00  0.00    +0.185 C 
BRANCH  35  36
ATOM     36  N   UNL     1     -13.269  -2.976  -9.151  1.00  0.00    -0.292 NA
ATOM     37  C   UNL     1     -13.780  -3.523  -7.882  1.00  0.00    +0.100 C 
ATOM     38  C   UNL     1     -14.271  -2.166  -9.856  1.00  0.00    +0.100 C 
ATOM     39  C   UNL     1     -15.269  -3.210  -7.586  1.00  0.00    +0.099 C 
ATOM     40  C   UNL     1     -14.942  -1.167  -8.885  1.00  0.00    +0.099 C 
ATOM     41  N   UNL     1     -15.666  -1.800  -7.763  1.00  0.00    -0.304 NA
ATOM     42  C   UNL     1     -15.494  -1.030  -6.534  1.00  0.00    +0.105 C 
ENDBRANCH  35  36
ENDBRANCH  33  35
ENDBRANCH  31  33
ENDBRANCH   4  31
TORSDOF 9
ENDMDL
MODEL 2
REMARK VINA RESULT:    -9.659      2.911     10.794
REMARK INTER + INTRA:         -15.714
REMARK INTER:                 -14.058
REMARK INTRA:                  -1.657
REMARK UNBOUND:                -0.973
REMARK SMILES COC(=O)c1ccc2c(c1)NC(=O)/C2=C(\Nc1ccc(N(C)C(=O)CN2CCN(C)CC2)cc1)c1ccccc1
REMARK SMILES IDX 17 1 18 2 19 3 20 4 33 5 34 6 16 7 15 9 5 10 6 11 10 12 7 13
REMARK SMILES IDX 9 14 8 15 11 16 14 17 12 18 13 19 3 21 4 22 2 23 1 24 35 25
REMARK SMILES IDX 36 26 40 27 37 28 39 29 38 30 21 31 22 32 23 33 24 34 25 35
REMARK SMILES IDX 26 36 27 37 32 38 28 39 31 40 29 41 30 42
REMARK H PARENT 16 8 11 20
ROOT
ATOM      1  C   UNL     1      -8.989   0.713 -13.793  1.00  0.00    +0.039 A 
ATOM      2  C   UNL     1      -8.087   1.766 -13.663  1.00  0.00    +0.028 A 
ATOM      3  C   UNL     1      -7.461   2.323 -14.788  1.00  0.00    +0.028 A 
ATOM      4  C   UNL     1      -7.717   1.845 -16.085  1.00  0.00    +0.043 A 
ATOM      5  C   UNL     1      -8.632   0.793 -16.202  1.00  0.00    +0.028 A 
ATOM      6  C   UNL     1      -9.259   0.236 -15.077  1.00  0.00    +0.028 A 
ENDROOT
BRANCH   1   7
ATOM      7  N   UNL     1      -9.672   0.165 -12.684  1.00  0.00    -0.354 N 
ATOM      8  H   UNL     1      -9.619  -0.861 -12.702  1.00  0.00    +0.167 HD
BRANCH   7   9
ATOM      9  C   UNL     1     -10.922   0.591 -12.208  1.00  0.00    +0.059 C 
ATOM     10  C   UNL     1     -14.941   0.384  -8.621  1.00  0.00    +0.062 A 
ATOM     11  C   UNL     1     -14.893   1.288  -9.704  1.00  0.00    +0.016 A 
ATOM     12  C   UNL     1     -13.901  -0.534  -8.430  1.00  0.00    +0.042 A 
ATOM     13  C   UNL     1     -13.813   1.287 -10.602  1.00  0.00    +0.012 A 
ATOM     14  C   UNL     1     -12.853  -0.511  -9.330  1.00  0.00    +0.050 A 
ATOM     15  C   UNL     1     -12.787   0.378 -10.410  1.00  0.00    +0.013 A 
ATOM     16  N   UNL     1     -11.739  -1.341  -9.304  1.00  0.00    -0.321 N 
ATOM     17  C   UNL     1     -11.523   0.076 -11.110  1.00  0.00    +0.073 C 
ATOM     18  C   UNL     1     -10.883  -1.064 -10.352  1.00  0.00    +0.258 C 
ATOM     19  O   UNL     1      -9.838  -1.631 -10.617  1.00  0.00    -0.269 OA
ATOM     20  H   UNL     1     -11.558  -2.071  -8.631  1.00  0.00    +0.170 HD
BRANCH  10  21
ATOM     21  C   UNL     1     -16.072   0.362  -7.653  1.00  0.00    +0.337 C 
ATOM     22  O   UNL     1     -16.968   1.192  -7.652  1.00  0.00    -0.246 OA
BRANCH  21  23
ATOM     23  O   UNL     1     -15.956  -0.686  -6.801  1.00  0.00    -0.465 OA
ATOM     24  C   UNL     1     -17.118  -1.515  -6.741  1.00  0.00    +0.282 C 
ENDBRANCH  21  23
ENDBRANCH  10  21
BRANCH   9  25
ATOM     25  C   UNL     1     -11.586   1.695 -12.934  1.00  0.00    -0.001 A 
ATOM     26  C   UNL     1     -12.725   1.451 -13.715  1.00  0.00    +0.010 A 
ATOM     27  C   UNL     1     -11.082   3.000 -12.843  1.00  0.00    +0.010 A 
ATOM     28  C   UNL     1     -13.352   2.499 -14.390  1.00  0.00    +0.001 A 
ATOM     29  C   UNL     1     -11.713   4.046 -13.518  1.00  0.00    +0.001 A 
ATOM     30  C   UNL     1     -12.847   3.795 -14.289  1.00  0.00    +0.000 A 
ENDBRANCH   9  25
ENDBRANCH   7   9
ENDBRANCH   1   7
BRANCH   4  31
ATOM     31  N   UNL     1      -7.074   2.444 -17.233  1.00  0.00    -0.314 N 
ATOM     32  C   UNL     1      -6.580   1.528 -18.265  1.00  0.00    +0.153 C 
BRANCH  31  33
ATOM     33  C   UNL     1      -7.015   3.849 -17.408  1.00  0.00    +0.240 C 
ATOM     34  O   UNL     1      -5.963   4.485 -17.516  1.00  0.00    -0.273 OA
BRANCH  33  35
ATOM     35  C   UNL     1      -8.382   4.579 -17.444  1.00  0.00    +0.185 C 
BRANCH  35  36
ATOM     36  N   UNL     1      -8.413   5.860 -18.174  1.00  0.00    -0.292 NA
ATOM     37  C   UNL     1      -8.778   7.023 -17.345  1.00  0.00    +0.100 C 
ATOM     38  C   UNL     1      -9.173   5.806 -19.429  1.00  0.00    +0.100 C 
ATOM     39  C   UNL     1      -9.926   7.897 -17.912  1.00  0.00    +0.099 C 
ATOM     40  C   UNL     1      -9.172   7.188 -20.124  1.00  0.00    +0.099 C 
ATOM     41  N   UNL     1      -9.795   8.270 -19.333  1.00  0.00    -0.304 NA
ATOM     42  C   UNL     1      -9.063   9.522 -19.500  1.00  0.00    +0.105 C 
ENDBRANCH  35  36
ENDBRANCH  33  35
ENDBRANCH  31  33
ENDBRANCH   4  31
TORSDOF 9
ENDMDL
MODEL 3
REMARK VINA RESULT:    -9.639      4.819      8.433
REMARK INTER + INTRA:         -15.684
REMARK INTER:                 -13.770
REMARK INTRA:                  -1.914
REMARK UNBOUND:                -0.973
REMARK SMILES COC(=O)c1ccc2c(c1)NC(=O)/C2=C(\Nc1ccc(N(C)C(=O)CN2CCN(C)CC2)cc1)c1ccccc1
REMARK SMILES IDX 17 1 18 2 19 3 20 4 33 5 34 6 16 7 15 9 5 10 6 11 10 12 7 13
REMARK SMILES IDX 9 14 8 15 11 16 14 17 12 18 13 19 3 21 4 22 2 23 1 24 35 25
REMARK SMILES IDX 36 26 40 27 37 28 39 29 38 30 21 31 22 32 23 33 24 34 25 35
REMARK SMILES IDX 26 36 27 37 32 38 28 39 31 40 29 41 30 42
REMARK H PARENT 16 8 11 20
ROOT
ATOM      1  C   UNL     1      -6.289   0.383 -14.545  1.00  0.00    +0.039 A 
ATOM      2  C   UNL     1      -5.666  -0.434 -13.605  1.00  0.00    +0.028 A 
ATOM      3  C   UNL     1      -5.266  -1.737 -13.935  1.00  0.00    +0.028 A 
ATOM      4  C   UNL     1      -5.475  -2.270 -15.219  1.00  0.00    +0.043 A 
ATOM      5  C   UNL     1      -6.094  -1.436 -16.156  1.00  0.00    +0.028 A 
ATOM      6  C   UNL     1      -6.493  -0.131 -15.827  1.00  0.00    +0.028 A 
ENDROOT
BRANCH   1   7
ATOM      7  N   UNL     1      -6.657   1.717 -14.259  1.00  0.00    -0.354 N 
ATOM      8  H   UNL     1      -6.688   1.869 -13.243  1.00  0.00    +0.167 HD
BRANCH   7   9
ATOM      9  C   UNL     1      -7.677   2.434 -14.901  1.00  0.00    +0.059 C 
ATOM     10  C   UNL     1      -9.386   5.847 -18.709  1.00  0.00    +0.062 A 
ATOM     11  C   UNL     1     -10.239   5.181 -17.802  1.00  0.00    +0.016 A 
ATOM     12  C   UNL     1      -8.003   5.638 -18.650  1.00  0.00    +0.042 A 
ATOM     13  C   UNL     1      -9.725   4.304 -16.834  1.00  0.00    +0.012 A 
ATOM     14  C   UNL     1      -7.527   4.769 -17.686  1.00  0.00    +0.050 A 
ATOM     15  C   UNL     1      -8.357   4.099 -16.778  1.00  0.00    +0.013 A 
ATOM     16  N   UNL     1      -6.194   4.438 -17.474  1.00  0.00    -0.321 N 
ATOM     17  C   UNL     1      -7.463   3.281 -15.936  1.00  0.00    +0.073 C 
ATOM     18  C   UNL     1      -6.059   3.549 -16.426  1.00  0.00    +0.258 C 
ATOM     19  O   UNL     1      -5.022   3.089 -15.981  1.00  0.00    -0.269 OA
ATOM     20  H   UNL     1      -5.404   4.796 -17.991  1.00  0.00    +0.170 HD
BRANCH  10  21
ATOM     21  C   UNL     1      -9.902   6.782 -19.746  1.00  0.00    +0.337 C 
ATOM     22  O   UNL     1     -10.605   7.747 -19.488  1.00  0.00    -0.246 OA
BRANCH  21  23
ATOM     23  O   UNL     1      -9.485   6.409 -20.980  1.00  0.00    -0.465 OA
ATOM     24  C   UNL     1     -10.054   7.178 -22.042  1.00  0.00    +0.282 C 
ENDBRANCH  21  23
ENDBRANCH  10  21
BRANCH   9  25
ATOM     25  C   UNL     1      -9.063   2.209 -14.439  1.00  0.00    -0.001 A 
ATOM     26  C   UNL     1      -9.735   1.019 -14.753  1.00  0.00    +0.010 A 
ATOM     27  C   UNL     1      -9.718   3.187 -13.677  1.00  0.00    +0.010 A 
ATOM     28  C   UNL     1     -11.040   0.809 -14.306  1.00  0.00    +0.001 A 
ATOM     29  C   UNL     1     -11.024   2.974 -13.231  1.00  0.00    +0.001 A 
ATOM     30  C   UNL     1     -11.682   1.785 -13.544  1.00  0.00    +0.000 A 
ENDBRANCH   9  25
ENDBRANCH   7   9
ENDBRANCH   1   7
BRANCH   4  31
ATOM     31  N   UNL     1      -5.040  -3.611 -15.542  1.00  0.00    -0.314 N 
ATOM     32  C   UNL     1      -6.029  -4.681 -15.384  1.00  0.00    +0.153 C 
BRANCH  31  33
ATOM     33  C   UNL     1      -3.757  -3.869 -16.086  1.00  0.00    +0.240 C 
ATOM     34  O   UNL     1      -3.463  -4.901 -16.694  1.00  0.00    -0.273 OA
BRANCH  33  35
ATOM     35  C   UNL     1      -2.697  -2.761 -15.859  1.00  0.00    +0.185 C 
BRANCH  35  36
ATOM     36  N   UNL     1      -2.624  -1.714 -16.895  1.00  0.00    -0.292 NA
ATOM     37  C   UNL     1      -1.636  -1.976 -17.956  1.00  0.00    +0.100 C 
ATOM     38  C   UNL     1      -2.514  -0.353 -16.352  1.00  0.00    +0.100 C 
ATOM     39  C   UNL     1      -0.643  -0.818 -18.229  1.00  0.00    +0.099 C 
ATOM     40  C   UNL     1      -2.426   0.682 -17.497  1.00  0.00    +0.099 C 
ATOM     41  N   UNL     1      -1.254   0.516 -18.382  1.00  0.00    -0.304 NA
ATOM     42  C   UNL     1      -1.609   0.794 -19.771  1.00  0.00    +0.105 C 
ENDBRANCH  35  36
ENDBRANCH  33  35
ENDBRANCH  31  33
ENDBRANCH   4  31
TORSDOF 9
ENDMDL
MODEL 4
REMARK VINA RESULT:    -9.526      1.158      1.493
REMARK INTER + INTRA:         -15.512
REMARK INTER:                 -14.645
REMARK INTRA:                  -0.867
REMARK UNBOUND:                -0.973
REMARK SMILES COC(=O)c1ccc2c(c1)NC(=O)/C2=C(\Nc1ccc(N(C)C(=O)CN2CCN(C)CC2)cc1)c1ccccc1
REMARK SMILES IDX 17 1 18 2 19 3 20 4 33 5 34 6 16 7 15 9 5 10 6 11 10 12 7 13
REMARK SMILES IDX 9 14 8 15 11 16 14 17 12 18 13 19 3 21 4 22 2 23 1 24 35 25
REMARK SMILES IDX 36 26 40 27 37 28 39 29 38 30 21 31 22 32 23 33 24 34 25 35
REMARK SMILES IDX 26 36 27 37 32 38 28 39 31 40 29 41 30 42
REMARK H PARENT 16 8 11 20
ROOT
ATOM      1  C   UNL     1     -11.243   0.885 -12.087  1.00  0.00    +0.039 A 
ATOM      2  C   UNL     1     -10.669  -0.288 -12.572  1.00  0.00    +0.028 A 
ATOM      3  C   UNL     1     -10.569  -1.429 -11.763  1.00  0.00    +0.028 A 
ATOM      4  C   UNL     1     -11.042  -1.439 -10.440  1.00  0.00    +0.043 A 
ATOM      5  C   UNL     1     -11.625  -0.258  -9.968  1.00  0.00    +0.028 A 
ATOM      6  C   UNL     1     -11.726   0.885 -10.777  1.00  0.00    +0.028 A 
ENDROOT
BRANCH   1   7
ATOM      7  N   UNL     1     -11.403   2.035 -12.893  1.00  0.00    -0.354 N 
ATOM      8  H   UNL     1     -12.387   2.146 -13.165  1.00  0.00    +0.167 HD
BRANCH   7   9
ATOM      9  C   UNL     1     -10.549   2.421 -13.937  1.00  0.00    +0.059 C 
ATOM     10  C   UNL     1      -9.169   5.771 -17.929  1.00  0.00    +0.062 A 
ATOM     11  C   UNL     1      -8.397   4.661 -17.525  1.00  0.00    +0.016 A 
ATOM     12  C   UNL     1     -10.377   6.056 -17.280  1.00  0.00    +0.042 A 
ATOM     13  C   UNL     1      -8.817   3.829 -16.475  1.00  0.00    +0.012 A 
ATOM     14  C   UNL     1     -10.764   5.218 -16.251  1.00  0.00    +0.050 A 
ATOM     15  C   UNL     1     -10.011   4.112 -15.836  1.00  0.00    +0.013 A 
ATOM     16  N   UNL     1     -11.924   5.339 -15.495  1.00  0.00    -0.321 N 
ATOM     17  C   UNL     1     -10.767   3.499 -14.725  1.00  0.00    +0.073 C 
ATOM     18  C   UNL     1     -12.014   4.334 -14.552  1.00  0.00    +0.258 C 
ATOM     19  O   UNL     1     -12.919   4.151 -13.757  1.00  0.00    -0.269 OA
ATOM     20  H   UNL     1     -12.634   6.048 -15.606  1.00  0.00    +0.170 HD
BRANCH  10  21
ATOM     21  C   UNL     1      -8.749   6.671 -19.038  1.00  0.00    +0.337 C 
ATOM     22  O   UNL     1      -7.916   6.359 -19.874  1.00  0.00    -0.246 OA
BRANCH  21  23
ATOM     23  O   UNL     1      -9.413   7.852 -18.977  1.00  0.00    -0.465 OA
ATOM     24  C   UNL     1      -9.939   8.286 -20.232  1.00  0.00    +0.282 C 
ENDBRANCH  21  23
ENDBRANCH  10  21
BRANCH   9  25
ATOM     25  C   UNL     1      -9.325   1.618 -14.147  1.00  0.00    -0.001 A 
ATOM     26  C   UNL     1      -8.164   1.884 -13.407  1.00  0.00    +0.010 A 
ATOM     27  C   UNL     1      -9.317   0.580 -15.089  1.00  0.00    +0.010 A 
ATOM     28  C   UNL     1      -7.014   1.118 -13.605  1.00  0.00    +0.001 A 
ATOM     29  C   UNL     1      -8.166  -0.185 -15.283  1.00  0.00    +0.001 A 
ATOM     30  C   UNL     1      -7.017   0.083 -14.540  1.00  0.00    +0.000 A 
ENDBRANCH   9  25
ENDBRANCH   7   9
ENDBRANCH   1   7
BRANCH   4  31
ATOM     31  N   UNL     1     -10.945  -2.632  -9.629  1.00  0.00    -0.314 N 
ATOM     32  C   UNL     1     -10.220  -2.511  -8.361  1.00  0.00    +0.153 C 
BRANCH  31  33
ATOM     33  C   UNL     1     -11.604  -3.834  -9.987  1.00  0.00    +0.240 C 
ATOM     34  O   UNL     1     -11.112  -4.957  -9.848  1.00  0.00    -0.273 OA
BRANCH  33  35
ATOM     35  C   UNL     1     -13.020  -3.667 -10.596  1.00  0.00    +0.185 C 
BRANCH  35  36
ATOM     36  N   UNL     1     -14.125  -3.506  -9.633  1.00  0.00    -0.292 NA
ATOM     37  C   UNL     1     -14.661  -2.136  -9.547  1.00  0.00    +0.100 C 
ATOM     38  C   UNL     1     -13.845  -4.083  -8.312  1.00  0.00    +0.100 C 
ATOM     39  C   UNL     1     -14.746  -1.554  -8.113  1.00  0.00    +0.099 C 
ATOM     40  C   UNL     1     -15.042  -3.859  -7.358  1.00  0.00    +0.099 C 
ATOM     41  N   UNL     1     -15.366  -2.439  -7.107  1.00  0.00    -0.304 NA
ATOM     42  C   UNL     1     -16.810  -2.242  -7.030  1.00  0.00    +0.105 C 
ENDBRANCH  35  36
ENDBRANCH  33  35
ENDBRANCH  31  33
ENDBRANCH   4  31
TORSDOF 9
ENDMDL
MODEL 5
REMARK VINA RESULT:    -9.525      5.345      7.866
REMARK INTER + INTRA:         -15.510
REMARK INTER:                 -13.725
REMARK INTRA:                  -1.785
REMARK UNBOUND:                -0.973
REMARK SMILES COC(=O)c1ccc2c(c1)NC(=O)/C2=C(\Nc1ccc(N(C)C(=O)CN2CCN(C)CC2)cc1)c1ccccc1
REMARK SMILES IDX 17 1 18 2 19 3 20 4 33 5 34 6 16 7 15 9 5 10 6 11 10 12 7 13
REMARK SMILES IDX 9 14 8 15 11 16 14 17 12 18 13 19 3 21 4 22 2 23 1 24 35 25
REMARK SMILES IDX 36 26 40 27 37 28 39 29 38 30 21 31 22 32 23 33 24 34 25 35
REMARK SMILES IDX 26 36 27 37 32 38 28 39 31 40 29 41 30 42
REMARK H PARENT 16 8 11 20
ROOT
ATOM      1  C   UNL     1      -5.761  -0.190 -14.226  1.00  0.00    +0.039 A 
ATOM      2  C   UNL     1      -5.415  -1.010 -15.298  1.00  0.00    +0.028 A 
ATOM      3  C   UNL     1      -5.339  -2.402 -15.145  1.00  0.00    +0.028 A 
ATOM      4  C   UNL     1      -5.608  -3.025 -13.914  1.00  0.00    +0.043 A 
ATOM      5  C   UNL     1      -5.963  -2.190 -12.848  1.00  0.00    +0.028 A 
ATOM      6  C   UNL     1      -6.040  -0.797 -13.001  1.00  0.00    +0.028 A 
ENDROOT
BRANCH   1   7
ATOM      7  N   UNL     1      -5.895   1.210 -14.361  1.00  0.00    -0.354 N 
ATOM      8  H   UNL     1      -5.558   1.685 -13.515  1.00  0.00    +0.167 HD
BRANCH   7   9
ATOM      9  C   UNL     1      -7.011   1.872 -14.894  1.00  0.00    +0.059 C 
ATOM     10  C   UNL     1      -9.250   5.319 -18.382  1.00  0.00    +0.062 A 
ATOM     11  C   UNL     1      -9.982   4.540 -17.459  1.00  0.00    +0.016 A 
ATOM     12  C   UNL     1      -7.855   5.222 -18.427  1.00  0.00    +0.042 A 
ATOM     13  C   UNL     1      -9.332   3.661 -16.578  1.00  0.00    +0.012 A 
ATOM     14  C   UNL     1      -7.244   4.348 -17.548  1.00  0.00    +0.050 A 
ATOM     15  C   UNL     1      -7.953   3.567 -16.625  1.00  0.00    +0.013 A 
ATOM     16  N   UNL     1      -5.878   4.118 -17.444  1.00  0.00    -0.321 N 
ATOM     17  C   UNL     1      -6.939   2.784 -15.891  1.00  0.00    +0.073 C 
ATOM     18  C   UNL     1      -5.598   3.192 -16.459  1.00  0.00    +0.258 C 
ATOM     19  O   UNL     1      -4.499   2.798 -16.110  1.00  0.00    -0.269 OA
ATOM     20  H   UNL     1      -5.158   4.566 -17.991  1.00  0.00    +0.170 HD
BRANCH  10  21
ATOM     21  C   UNL     1      -9.911   6.259 -19.329  1.00  0.00    +0.337 C 
ATOM     22  O   UNL     1     -10.996   6.775 -19.112  1.00  0.00    -0.246 OA
BRANCH  21  23
ATOM     23  O   UNL     1      -9.147   6.446 -20.433  1.00  0.00    -0.465 OA
ATOM     24  C   UNL     1      -9.762   7.263 -21.431  1.00  0.00    +0.282 C 
ENDBRANCH  21  23
ENDBRANCH  10  21
BRANCH   9  25
ATOM     25  C   UNL     1      -8.339   1.510 -14.353  1.00  0.00    -0.001 A 
ATOM     26  C   UNL     1      -8.936   2.287 -13.351  1.00  0.00    +0.010 A 
ATOM     27  C   UNL     1      -9.015   0.384 -14.844  1.00  0.00    +0.010 A 
ATOM     28  C   UNL     1     -10.193   1.945 -12.851  1.00  0.00    +0.001 A 
ATOM     29  C   UNL     1     -10.273   0.045 -14.343  1.00  0.00    +0.001 A 
ATOM     30  C   UNL     1     -10.861   0.826 -13.349  1.00  0.00    +0.000 A 
ENDBRANCH   9  25
ENDBRANCH   7   9
ENDBRANCH   1   7
BRANCH   4  31
ATOM     31  N   UNL     1      -5.540  -4.463 -13.783  1.00  0.00    -0.314 N 
ATOM     32  C   UNL     1      -5.136  -4.988 -12.475  1.00  0.00    +0.153 C 
BRANCH  31  33
ATOM     33  C   UNL     1      -5.944  -5.329 -14.829  1.00  0.00    +0.240 C 
ATOM     34  O   UNL     1      -6.687  -4.990 -15.754  1.00  0.00    -0.273 OA
BRANCH  33  35
ATOM     35  C   UNL     1      -5.401  -6.779 -14.749  1.00  0.00    +0.185 C 
BRANCH  35  36
ATOM     36  N   UNL     1      -4.356  -7.135 -15.727  1.00  0.00    -0.292 NA
ATOM     37  C   UNL     1      -3.264  -6.151 -15.834  1.00  0.00    +0.100 C 
ATOM     38  C   UNL     1      -4.886  -7.529 -17.039  1.00  0.00    +0.100 C 
ATOM     39  C   UNL     1      -2.949  -5.676 -17.276  1.00  0.00    +0.099 C 
ATOM     40  C   UNL     1      -3.731  -7.870 -18.009  1.00  0.00    +0.099 C 
ATOM     41  N   UNL     1      -2.808  -6.748 -18.279  1.00  0.00    -0.304 NA
ATOM     42  C   UNL     1      -1.431  -7.221 -18.376  1.00  0.00    +0.105 C 
ENDBRANCH  35  36
ENDBRANCH  33  35
ENDBRANCH  31  33
ENDBRANCH   4  31
TORSDOF 9
ENDMDL
MODEL 6
REMARK VINA RESULT:    -9.515      1.449      2.325
REMARK INTER + INTRA:         -15.495
REMARK INTER:                 -14.763
REMARK INTRA:                  -0.732
REMARK UNBOUND:                -0.973
REMARK SMILES COC(=O)c1ccc2c(c1)NC(=O)/C2=C(\Nc1ccc(N(C)C(=O)CN2CCN(C)CC2)cc1)c1ccccc1
REMARK SMILES IDX 17 1 18 2 19 3 20 4 33 5 34 6 16 7 15 9 5 10 6 11 10 12 7 13
REMARK SMILES IDX 9 14 8 15 11 16 14 17 12 18 13 19 3 21 4 22 2 23 1 24 35 25
REMARK SMILES IDX 36 26 40 27 37 28 39 29 38 30 21 31 22 32 23 33 24 34 25 35
REMARK SMILES IDX 26 36 27 37 32 38 28 39 31 40 29 41 30 42
REMARK H PARENT 16 8 11 20
ROOT
ATOM      1  C   UNL     1     -11.112   1.517 -12.733  1.00  0.00    +0.039 A 
ATOM      2  C   UNL     1     -10.487   0.445 -13.366  1.00  0.00    +0.028 A 
ATOM      3  C   UNL     1     -10.433  -0.818 -12.759  1.00  0.00    +0.028 A 
ATOM      4  C   UNL     1     -11.003  -1.054 -11.497  1.00  0.00    +0.043 A 
ATOM      5  C   UNL     1     -11.635   0.029 -10.876  1.00  0.00    +0.028 A 
ATOM      6  C   UNL     1     -11.691   1.293 -11.483  1.00  0.00    +0.028 A 
ENDROOT
BRANCH   1   7
ATOM      7  N   UNL     1     -11.227   2.788 -13.341  1.00  0.00    -0.354 N 
ATOM      8  H   UNL     1     -12.216   3.033 -13.473  1.00  0.00    +0.167 HD
BRANCH   7   9
ATOM      9  C   UNL     1     -10.451   3.248 -14.415  1.00  0.00    +0.059 C 
ATOM     10  C   UNL     1      -9.660   6.534 -18.615  1.00  0.00    +0.062 A 
ATOM     11  C   UNL     1      -8.710   5.598 -18.153  1.00  0.00    +0.016 A 
ATOM     12  C   UNL     1     -10.898   6.649 -17.973  1.00  0.00    +0.042 A 
ATOM     13  C   UNL     1      -8.983   4.772 -17.051  1.00  0.00    +0.012 A 
ATOM     14  C   UNL     1     -11.138   5.823 -16.891  1.00  0.00    +0.050 A 
ATOM     15  C   UNL     1     -10.208   4.888 -16.418  1.00  0.00    +0.013 A 
ATOM     16  N   UNL     1     -12.301   5.791 -16.132  1.00  0.00    -0.321 N 
ATOM     17  C   UNL     1     -10.848   4.224 -15.265  1.00  0.00    +0.073 C 
ATOM     18  C   UNL     1     -12.220   4.845 -15.129  1.00  0.00    +0.258 C 
ATOM     19  O   UNL     1     -13.081   4.560 -14.316  1.00  0.00    -0.269 OA
ATOM     20  H   UNL     1     -13.121   6.361 -16.278  1.00  0.00    +0.170 HD
BRANCH  10  21
ATOM     21  C   UNL     1      -9.398   7.423 -19.781  1.00  0.00    +0.337 C 
ATOM     22  O   UNL     1      -9.207   8.624 -19.677  1.00  0.00    -0.246 OA
BRANCH  21  23
ATOM     23  O   UNL     1      -9.406   6.715 -20.937  1.00  0.00    -0.465 OA
ATOM     24  C   UNL     1     -10.250   7.267 -21.949  1.00  0.00    +0.282 C 
ENDBRANCH  21  23
ENDBRANCH  10  21
BRANCH   9  25
ATOM     25  C   UNL     1      -9.108   2.654 -14.589  1.00  0.00    -0.001 A 
ATOM     26  C   UNL     1      -8.866   1.729 -15.615  1.00  0.00    +0.010 A 
ATOM     27  C   UNL     1      -8.062   3.015 -13.728  1.00  0.00    +0.010 A 
ATOM     28  C   UNL     1      -7.594   1.178 -15.778  1.00  0.00    +0.001 A 
ATOM     29  C   UNL     1      -6.791   2.463 -13.895  1.00  0.00    +0.001 A 
ATOM     30  C   UNL     1      -6.558   1.547 -14.921  1.00  0.00    +0.000 A 
ENDBRANCH   9  25
ENDBRANCH   7   9
ENDBRANCH   1   7
BRANCH   4  31
ATOM     31  N   UNL     1     -10.950  -2.369 -10.896  1.00  0.00    -0.314 N 
ATOM     32  C   UNL     1     -10.039  -2.539  -9.760  1.00  0.00    +0.153 C 
BRANCH  31  33
ATOM     33  C   UNL     1     -11.810  -3.415 -11.312  1.00  0.00    +0.240 C 
ATOM     34  O   UNL     1     -11.793  -3.911 -12.441  1.00  0.00    -0.273 OA
BRANCH  33  35
ATOM     35  C   UNL     1     -12.819  -3.917 -10.248  1.00  0.00    +0.185 C 
BRANCH  35  36
ATOM     36  N   UNL     1     -12.330  -4.969  -9.337  1.00  0.00    -0.292 NA
ATOM     37  C   UNL     1     -12.583  -6.343  -9.804  1.00  0.00    +0.100 C 
ATOM     38  C   UNL     1     -12.731  -4.770  -7.937  1.00  0.00    +0.100 C 
ATOM     39  C   UNL     1     -13.281  -7.268  -8.774  1.00  0.00    +0.099 C 
ATOM     40  C   UNL     1     -12.195  -5.919  -7.052  1.00  0.00    +0.099 C 
ATOM     41  N   UNL     1     -12.698  -7.259  -7.419  1.00  0.00    -0.304 NA
ATOM     42  C   UNL     1     -11.650  -8.265  -7.273  1.00  0.00    +0.105 C 
ENDBRANCH  35  36
ENDBRANCH  33  35
ENDBRANCH  31  33
ENDBRANCH   4  31
TORSDOF 9
ENDMDL
MODEL 7
REMARK VINA RESULT:    -9.417      3.889      6.456
REMARK INTER + INTRA:         -15.345
REMARK INTER:                 -13.674
REMARK INTRA:                  -1.671
REMARK UNBOUND:                -0.973
REMARK SMILES COC(=O)c1ccc2c(c1)NC(=O)/C2=C(\Nc1ccc(N(C)C(=O)CN2CCN(C)CC2)cc1)c1ccccc1
REMARK SMILES IDX 17 1 18 2 19 3 20 4 33 5 34 6 16 7 15 9 5 10 6 11 10 12 7 13
REMARK SMILES IDX 9 14 8 15 11 16 14 17 12 18 13 19 3 21 4 22 2 23 1 24 35 25
REMARK SMILES IDX 36 26 40 27 37 28 39 29 38 30 21 31 22 32 23 33 24 34 25 35
REMARK SMILES IDX 26 36 27 37 32 38 28 39 31 40 29 41 30 42
REMARK H PARENT 16 8 11 20
ROOT
ATOM      1  C   UNL     1      -9.046   1.436 -13.843  1.00  0.00    +0.039 A 
ATOM      2  C   UNL     1      -7.688   1.526 -13.552  1.00  0.00    +0.028 A 
ATOM      3  C   UNL     1      -7.012   0.465 -12.933  1.00  0.00    +0.028 A 
ATOM      4  C   UNL     1      -7.671  -0.726 -12.584  1.00  0.00    +0.043 A 
ATOM      5  C   UNL     1      -9.034  -0.807 -12.891  1.00  0.00    +0.028 A 
ATOM      6  C   UNL     1      -9.711   0.255 -13.511  1.00  0.00    +0.028 A 
ENDROOT
BRANCH   1   7
ATOM      7  N   UNL     1      -9.744   2.468 -14.511  1.00  0.00    -0.354 N 
ATOM      8  H   UNL     1     -10.738   2.226 -14.603  1.00  0.00    +0.167 HD
BRANCH   7   9
ATOM      9  C   UNL     1      -9.289   3.152 -15.649  1.00  0.00    +0.059 C 
ATOM     10  C   UNL     1      -9.595   7.240 -19.150  1.00  0.00    +0.062 A 
ATOM     11  C   UNL     1      -8.594   6.245 -19.180  1.00  0.00    +0.016 A 
ATOM     12  C   UNL     1     -10.591   7.200 -18.167  1.00  0.00    +0.042 A 
ATOM     13  C   UNL     1      -8.574   5.207 -18.235  1.00  0.00    +0.012 A 
ATOM     14  C   UNL     1     -10.546   6.166 -17.251  1.00  0.00    +0.050 A 
ATOM     15  C   UNL     1      -9.560   5.170 -17.265  1.00  0.00    +0.013 A 
ATOM     16  N   UNL     1     -11.443   5.959 -16.210  1.00  0.00    -0.321 N 
ATOM     17  C   UNL     1      -9.871   4.274 -16.133  1.00  0.00    +0.073 C 
ATOM     18  C   UNL     1     -11.118   4.830 -15.485  1.00  0.00    +0.258 C 
ATOM     19  O   UNL     1     -11.721   4.370 -14.531  1.00  0.00    -0.269 OA
ATOM     20  H   UNL     1     -12.245   6.533 -15.996  1.00  0.00    +0.170 HD
BRANCH  10  21
ATOM     21  C   UNL     1      -9.641   8.352 -20.138  1.00  0.00    +0.337 C 
ATOM     22  O   UNL     1      -8.929   9.342 -20.066  1.00  0.00    -0.246 OA
BRANCH  21  23
ATOM     23  O   UNL     1     -10.564   8.105 -21.099  1.00  0.00    -0.465 OA
ATOM     24  C   UNL     1     -10.051   7.392 -22.227  1.00  0.00    +0.282 C 
ENDBRANCH  21  23
ENDBRANCH  10  21
BRANCH   9  25
ATOM     25  C   UNL     1      -8.080   2.629 -16.319  1.00  0.00    -0.001 A 
ATOM     26  C   UNL     1      -8.169   1.547 -17.207  1.00  0.00    +0.010 A 
ATOM     27  C   UNL     1      -6.830   3.215 -16.074  1.00  0.00    +0.010 A 
ATOM     28  C   UNL     1      -7.024   1.063 -17.843  1.00  0.00    +0.001 A 
ATOM     29  C   UNL     1      -5.688   2.730 -16.713  1.00  0.00    +0.001 A 
ATOM     30  C   UNL     1      -5.787   1.657 -17.598  1.00  0.00    +0.000 A 
ENDBRANCH   9  25
ENDBRANCH   7   9
ENDBRANCH   1   7
BRANCH   4  31
ATOM     31  N   UNL     1      -6.951  -1.815 -11.961  1.00  0.00    -0.314 N 
ATOM     32  C   UNL     1      -7.161  -2.008 -10.524  1.00  0.00    +0.153 C 
BRANCH  31  33
ATOM     33  C   UNL     1      -6.164  -2.719 -12.717  1.00  0.00    +0.240 C 
ATOM     34  O   UNL     1      -6.613  -3.725 -13.272  1.00  0.00    -0.273 OA
BRANCH  33  35
ATOM     35  C   UNL     1      -4.653  -2.380 -12.807  1.00  0.00    +0.185 C 
BRANCH  35  36
ATOM     36  N   UNL     1      -4.067  -2.388 -14.160  1.00  0.00    -0.292 NA
ATOM     37  C   UNL     1      -2.593  -2.395 -14.183  1.00  0.00    +0.100 C 
ATOM     38  C   UNL     1      -4.637  -1.375 -15.057  1.00  0.00    +0.100 C 
ATOM     39  C   UNL     1      -1.947  -1.300 -15.070  1.00  0.00    +0.099 C 
ATOM     40  C   UNL     1      -3.960  -1.438 -16.446  1.00  0.00    +0.099 C 
ATOM     41  N   UNL     1      -2.506  -1.175 -16.429  1.00  0.00    -0.304 NA
ATOM     42  C   UNL     1      -1.812  -2.038 -17.382  1.00  0.00    +0.105 C 
ENDBRANCH  35  36
ENDBRANCH  33  35
ENDBRANCH  31  33
ENDBRANCH   4  31
TORSDOF 9
ENDMDL
MODEL 8
REMARK VINA RESULT:    -9.304      2.016      4.154
REMARK INTER + INTRA:         -15.172
REMARK INTER:                 -13.921
REMARK INTRA:                  -1.251
REMARK UNBOUND:                -0.973
REMARK SMILES COC(=O)c1ccc2c(c1)NC(=O)/C2=C(\Nc1ccc(N(C)C(=O)CN2CCN(C)CC2)cc1)c1ccccc1
REMARK SMILES IDX 17 1 18 2 19 3 20 4 33 5 34 6 16 7 15 9 5 10 6 11 10 12 7 13
REMARK SMILES IDX 9 14 8 15 11 16 14 17 12 18 13 19 3 21 4 22 2 23 1 24 35 25
REMARK SMILES IDX 36 26 40 27 37 28 39 29 38 30 21 31 22 32 23 33 24 34 25 35
REMARK SMILES IDX 26 36 27 37 32 38 28 39 31 40 29 41 30 42
REMARK H PARENT 16 8 11 20
ROOT
ATOM      1  C   UNL     1     -11.273   1.446 -12.592  1.00  0.00    +0.039 A 
ATOM      2  C   UNL     1     -10.693   0.344 -13.216  1.00  0.00    +0.028 A 
ATOM      3  C   UNL     1     -10.624  -0.897 -12.568  1.00  0.00    +0.028 A 
ATOM      4  C   UNL     1     -11.134  -1.082 -11.271  1.00  0.00    +0.043 A 
ATOM      5  C   UNL     1     -11.722   0.031 -10.659  1.00  0.00    +0.028 A 
ATOM      6  C   UNL     1     -11.792   1.274 -11.307  1.00  0.00    +0.028 A 
ENDROOT
BRANCH   1   7
ATOM      7  N   UNL     1     -11.402   2.696 -13.238  1.00  0.00    -0.354 N 
ATOM      8  H   UNL     1     -12.393   2.910 -13.407  1.00  0.00    +0.167 HD
BRANCH   7   9
ATOM      9  C   UNL     1     -10.605   3.149 -14.300  1.00  0.00    +0.059 C 
ATOM     10  C   UNL     1      -9.714   6.429 -18.485  1.00  0.00    +0.062 A 
ATOM     11  C   UNL     1      -8.782   5.481 -18.009  1.00  0.00    +0.016 A 
ATOM     12  C   UNL     1     -10.960   6.557 -17.860  1.00  0.00    +0.042 A 
ATOM     13  C   UNL     1      -9.081   4.657 -16.912  1.00  0.00    +0.012 A 
ATOM     14  C   UNL     1     -11.226   5.733 -16.783  1.00  0.00    +0.050 A 
ATOM     15  C   UNL     1     -10.314   4.787 -16.297  1.00  0.00    +0.013 A 
ATOM     16  N   UNL     1     -12.400   5.714 -16.041  1.00  0.00    -0.321 N 
ATOM     17  C   UNL     1     -10.979   4.130 -15.154  1.00  0.00    +0.073 C 
ATOM     18  C   UNL     1     -12.345   4.766 -15.038  1.00  0.00    +0.258 C 
ATOM     19  O   UNL     1     -13.221   4.491 -14.238  1.00  0.00    -0.269 OA
ATOM     20  H   UNL     1     -13.211   6.293 -16.199  1.00  0.00    +0.170 HD
BRANCH  10  21
ATOM     21  C   UNL     1      -9.425   7.315 -19.645  1.00  0.00    +0.337 C 
ATOM     22  O   UNL     1      -9.185   8.507 -19.534  1.00  0.00    -0.246 OA
BRANCH  21  23
ATOM     23  O   UNL     1      -9.468   6.617 -20.806  1.00  0.00    -0.465 OA
ATOM     24  C   UNL     1     -10.010   7.353 -21.905  1.00  0.00    +0.282 C 
ENDBRANCH  21  23
ENDBRANCH  10  21
BRANCH   9  25
ATOM     25  C   UNL     1      -9.267   2.539 -14.454  1.00  0.00    -0.001 A 
ATOM     26  C   UNL     1      -9.035   1.572 -15.443  1.00  0.00    +0.010 A 
ATOM     27  C   UNL     1      -8.215   2.927 -13.612  1.00  0.00    +0.010 A 
ATOM     28  C   UNL     1      -7.767   1.007 -15.589  1.00  0.00    +0.001 A 
ATOM     29  C   UNL     1      -6.949   2.360 -13.762  1.00  0.00    +0.001 A 
ATOM     30  C   UNL     1      -6.726   1.403 -14.751  1.00  0.00    +0.000 A 
ENDBRANCH   9  25
ENDBRANCH   7   9
ENDBRANCH   1   7
BRANCH   4  31
ATOM     31  N   UNL     1     -11.067  -2.375 -10.627  1.00  0.00    -0.314 N 
ATOM     32  C   UNL     1     -11.832  -3.461 -11.247  1.00  0.00    +0.153 C 
BRANCH  31  33
ATOM     33  C   UNL     1     -10.223  -2.612  -9.514  1.00  0.00    +0.240 C 
ATOM     34  O   UNL     1     -10.561  -3.258  -8.519  1.00  0.00    -0.273 OA
BRANCH  33  35
ATOM     35  C   UNL     1      -8.806  -1.988  -9.601  1.00  0.00    +0.185 C 
BRANCH  35  36
ATOM     36  N   UNL     1      -7.842  -2.690 -10.469  1.00  0.00    -0.292 NA
ATOM     37  C   UNL     1      -6.767  -3.389  -9.742  1.00  0.00    +0.100 C 
ATOM     38  C   UNL     1      -7.328  -1.864 -11.570  1.00  0.00    +0.100 C 
ATOM     39  C   UNL     1      -5.330  -3.059 -10.220  1.00  0.00    +0.099 C 
ATOM     40  C   UNL     1      -6.314  -2.663 -12.421  1.00  0.00    +0.099 C 
ATOM     41  N   UNL     1      -5.120  -3.119 -11.679  1.00  0.00    -0.304 NA
ATOM     42  C   UNL     1      -4.716  -4.452 -12.115  1.00  0.00    +0.105 C 
ENDBRANCH  35  36
ENDBRANCH  33  35
ENDBRANCH  31  33
ENDBRANCH   4  31
TORSDOF 9
ENDMDL
MODEL 9
REMARK VINA RESULT:    -9.298      4.410      6.244
REMARK INTER + INTRA:         -15.163
REMARK INTER:                 -13.455
REMARK INTRA:                  -1.708
REMARK UNBOUND:                -0.973
REMARK SMILES COC(=O)c1ccc2c(c1)NC(=O)/C2=C(\Nc1ccc(N(C)C(=O)CN2CCN(C)CC2)cc1)c1ccccc1
REMARK SMILES IDX 17 1 18 2 19 3 20 4 33 5 34 6 16 7 15 9 5 10 6 11 10 12 7 13
REMARK SMILES IDX 9 14 8 15 11 16 14 17 12 18 13 19 3 21 4 22 2 23 1 24 35 25
REMARK SMILES IDX 36 26 40 27 37 28 39 29 38 30 21 31 22 32 23 33 24 34 25 35
REMARK SMILES IDX 26 36 27 37 32 38 28 39 31 40 29 41 30 42
REMARK H PARENT 16 8 11 20
ROOT
ATOM      1  C   UNL     1      -6.228   0.331 -14.412  1.00  0.00    +0.039 A 
ATOM      2  C   UNL     1      -6.672  -0.332 -15.552  1.00  0.00    +0.028 A 
ATOM      3  C   UNL     1      -6.237  -1.632 -15.846  1.00  0.00    +0.028 A 
ATOM      4  C   UNL     1      -5.341  -2.317 -15.007  1.00  0.00    +0.043 A 
ATOM      5  C   UNL     1      -4.910  -1.643 -13.859  1.00  0.00    +0.028 A 
ATOM      6  C   UNL     1      -5.346  -0.341 -13.564  1.00  0.00    +0.028 A 
ENDROOT
BRANCH   1   7
ATOM      7  N   UNL     1      -6.688   1.621 -14.063  1.00  0.00    -0.354 N 
ATOM      8  H   UNL     1      -6.828   1.689 -13.047  1.00  0.00    +0.167 HD
BRANCH   7   9
ATOM      9  C   UNL     1      -7.671   2.347 -14.751  1.00  0.00    +0.059 C 
ATOM     10  C   UNL     1      -9.188   5.703 -18.689  1.00  0.00    +0.062 A 
ATOM     11  C   UNL     1     -10.082   5.082 -17.789  1.00  0.00    +0.016 A 
ATOM     12  C   UNL     1      -7.813   5.461 -18.586  1.00  0.00    +0.042 A 
ATOM     13  C   UNL     1      -9.617   4.217 -16.786  1.00  0.00    +0.012 A 
ATOM     14  C   UNL     1      -7.386   4.605 -17.588  1.00  0.00    +0.050 A 
ATOM     15  C   UNL     1      -8.257   3.980 -16.687  1.00  0.00    +0.013 A 
ATOM     16  N   UNL     1      -6.068   4.247 -17.331  1.00  0.00    -0.321 N 
ATOM     17  C   UNL     1      -7.407   3.161 -15.800  1.00  0.00    +0.073 C 
ATOM     18  C   UNL     1      -5.984   3.382 -16.258  1.00  0.00    +0.258 C 
ATOM     19  O   UNL     1      -4.972   2.908 -15.774  1.00  0.00    -0.269 OA
ATOM     20  H   UNL     1      -5.256   4.571 -17.835  1.00  0.00    +0.170 HD
BRANCH  10  21
ATOM     21  C   UNL     1      -9.652   6.624 -19.762  1.00  0.00    +0.337 C 
ATOM     22  O   UNL     1      -9.643   6.329 -20.947  1.00  0.00    -0.246 OA
BRANCH  21  23
ATOM     23  O   UNL     1     -10.073   7.801 -19.238  1.00  0.00    -0.465 OA
ATOM     24  C   UNL     1      -9.386   8.943 -19.753  1.00  0.00    +0.282 C 
ENDBRANCH  21  23
ENDBRANCH  10  21
BRANCH   9  25
ATOM     25  C   UNL     1      -9.075   2.169 -14.322  1.00  0.00    -0.001 A 
ATOM     26  C   UNL     1      -9.769   0.991 -14.629  1.00  0.00    +0.010 A 
ATOM     27  C   UNL     1      -9.723   3.180 -13.598  1.00  0.00    +0.010 A 
ATOM     28  C   UNL     1     -11.092   0.825 -14.214  1.00  0.00    +0.001 A 
ATOM     29  C   UNL     1     -11.045   3.011 -13.183  1.00  0.00    +0.001 A 
ATOM     30  C   UNL     1     -11.726   1.834 -13.489  1.00  0.00    +0.000 A 
ENDBRANCH   9  25
ENDBRANCH   7   9
ENDBRANCH   1   7
BRANCH   4  31
ATOM     31  N   UNL     1      -4.917  -3.664 -15.319  1.00  0.00    -0.314 N 
ATOM     32  C   UNL     1      -3.737  -3.802 -16.177  1.00  0.00    +0.153 C 
BRANCH  31  33
ATOM     33  C   UNL     1      -5.544  -4.796 -14.743  1.00  0.00    +0.240 C 
ATOM     34  O   UNL     1      -6.618  -5.261 -15.133  1.00  0.00    -0.273 OA
BRANCH  33  35
ATOM     35  C   UNL     1      -4.798  -5.440 -13.546  1.00  0.00    +0.185 C 
BRANCH  35  36
ATOM     36  N   UNL     1      -5.549  -5.515 -12.279  1.00  0.00    -0.292 NA
ATOM     37  C   UNL     1      -5.557  -4.262 -11.503  1.00  0.00    +0.100 C 
ATOM     38  C   UNL     1      -5.203  -6.681 -11.456  1.00  0.00    +0.100 C 
ATOM     39  C   UNL     1      -5.129  -4.406 -10.020  1.00  0.00    +0.099 C 
ATOM     40  C   UNL     1      -6.018  -6.678 -10.142  1.00  0.00    +0.099 C 
ATOM     41  N   UNL     1      -5.781  -5.502  -9.278  1.00  0.00    -0.304 NA
ATOM     42  C   UNL     1      -7.021  -5.065  -8.643  1.00  0.00    +0.105 C 
ENDBRANCH  35  36
ENDBRANCH  33  35
ENDBRANCH  31  33
ENDBRANCH   4  31
TORSDOF 9
ENDMDL
