REMARK SMILES CCN(CC)CCNC(=O)c1c(C)[nH]c(/C=C2\C(=O)Nc3ccc(F)cc32)c1C
REMARK SMILES IDX 7 1 6 2 3 3 2 4 1 5 4 6 5 7 8 8 9 9 10 10 11 12 12 13 28 14
REMARK SMILES IDX 14 15 15 16 13 17 29 18 16 20 17 21 18 22 27 23 19 24 20 25
REMARK SMILES IDX 26 26 21 27 24 28 22 29 23 30 25 32
REMARK H PARENT 8 11 14 19 20 31
ROOT
ATOM      1  C   UNL     1      -3.545  -0.673  -0.368  1.00  0.00    +0.131 C 
ENDROOT
BRANCH   1   2
ATOM      2  C   UNL     1      -4.517   0.452   0.024  1.00  0.00    +0.105 C 
BRANCH   2   3
ATOM      3  N   UNL     1      -5.894   0.168  -0.414  1.00  0.00    -0.302 NA
BRANCH   3   4
ATOM      4  C   UNL     1      -6.294   0.908  -1.620  1.00  0.00    +0.081 C 
ATOM      5  C   UNL     1      -5.514   0.508  -2.868  1.00  0.00    +0.021 C 
ENDBRANCH   3   4
BRANCH   3   6
ATOM      6  C   UNL     1      -6.871   0.332   0.676  1.00  0.00    +0.081 C 
ATOM      7  C   UNL     1      -7.064   1.754   1.197  1.00  0.00    +0.021 C 
ENDBRANCH   3   6
ENDBRANCH   2   3
ENDBRANCH   1   2
BRANCH   1   8
ATOM      8  N   UNL     1      -2.181  -0.355   0.014  1.00  0.00    -0.351 N 
ATOM      9  C   UNL     1      -1.224  -1.343   0.108  1.00  0.00    +0.253 C 
ATOM     10  O   UNL     1      -1.484  -2.537  -0.001  1.00  0.00    -0.269 OA
ATOM     11  H   UNL     1      -1.829   0.566  -0.208  1.00  0.00    +0.163 HD
BRANCH   9  12
ATOM     12  C   UNL     1       0.147  -0.847   0.282  1.00  0.00    +0.063 A 
ATOM     13  C   UNL     1       0.553   0.297   0.958  1.00  0.00    +0.025 A 
ATOM     14  C   UNL     1       1.349  -1.488  -0.191  1.00  0.00    -0.013 A 
ATOM     15  N   UNL     1       1.921   0.374   0.864  1.00  0.00    -0.358 N 
ATOM     16  C   UNL     1       2.434  -0.705   0.192  1.00  0.00    +0.043 A 
ATOM     17  C   UNL     1      -0.197   1.326   1.727  1.00  0.00    +0.065 C 
ATOM     18  C   UNL     1       1.386  -2.772  -0.953  1.00  0.00    +0.047 C 
ATOM     19  H   UNL     1       2.473   1.124   1.270  1.00  0.00    +0.166 HD
BRANCH  16  20
ATOM     20  C   UNL     1       3.834  -0.888  -0.000  1.00  0.00    +0.041 C 
ATOM     21  C   UNL     1       4.860  -0.086   0.331  1.00  0.00    +0.051 C 
ATOM     22  C   UNL     1       4.889   1.264   1.011  1.00  0.00    +0.256 C 
ATOM     23  C   UNL     1       6.269  -0.430   0.051  1.00  0.00    +0.014 A 
ATOM     24  O   UNL     1       3.953   1.923   1.424  1.00  0.00    -0.269 OA
ATOM     25  N   UNL     1       6.226   1.615   1.082  1.00  0.00    -0.321 N 
ATOM     26  C   UNL     1       6.884  -1.518  -0.543  1.00  0.00    +0.050 A 
ATOM     27  C   UNL     1       7.040   0.637   0.528  1.00  0.00    +0.049 A 
ATOM     28  C   UNL     1       8.276  -1.503  -0.641  1.00  0.00    +0.123 A 
ATOM     29  C   UNL     1       8.419   0.666   0.437  1.00  0.00    +0.030 A 
ATOM     30  C   UNL     1       9.041  -0.430  -0.161  1.00  0.00    +0.041 A 
ATOM     31  H   UNL     1       6.539   2.480   1.497  1.00  0.00    +0.170 HD
ATOM     32  F   UNL     1       8.900  -2.542  -1.211  1.00  0.00    -0.207 F 
ENDBRANCH  16  20
ENDBRANCH   9  12
ENDBRANCH   1   8
TORSDOF 7
