MODEL 1
REMARK VINA RESULT:   -10.070      0.000      0.000
REMARK INTER + INTRA:         -14.111
REMARK INTER:                 -14.190
REMARK INTRA:                   0.079
REMARK UNBOUND:                 0.079
REMARK SMILES CCN(CC)CCNC(=O)c1c(C)[nH]c(/C=C2\C(=O)Nc3ccc(F)cc32)c1C
REMARK SMILES IDX 7 1 6 2 3 3 2 4 1 5 4 6 5 7 8 8 9 9 10 10 11 12 12 13 28 14
REMARK SMILES IDX 14 15 15 16 13 17 29 18 16 20 17 21 18 22 27 23 19 24 20 25
REMARK SMILES IDX 26 26 21 27 24 28 22 29 23 30 25 32
REMARK H PARENT 8 11 14 19 20 31
ROOT
ATOM      1  C   UNL     1     -37.965 157.329   3.137  1.00  0.00    +0.131 C 
ENDROOT
BRANCH   1   2
ATOM      2  C   UNL     1     -36.724 157.975   3.773  1.00  0.00    +0.105 C 
BRANCH   2   3
ATOM      3  N   UNL     1     -35.714 156.973   4.153  1.00  0.00    -0.302 NA
BRANCH   3   4
ATOM      4  C   UNL     1     -36.272 155.809   4.855  1.00  0.00    +0.081 C 
ATOM      5  C   UNL     1     -36.656 156.097   6.303  1.00  0.00    +0.021 C 
ENDBRANCH   3   4
BRANCH   3   6
ATOM      6  C   UNL     1     -34.588 157.569   4.892  1.00  0.00    +0.081 C 
ATOM      7  C   UNL     1     -33.225 156.912   4.685  1.00  0.00    +0.021 C 
ENDBRANCH   3   6
ENDBRANCH   2   3
ENDBRANCH   1   2
BRANCH   1   8
ATOM      8  N   UNL     1     -38.511 158.155   2.076  1.00  0.00    -0.351 N 
ATOM      9  C   UNL     1     -39.855 158.461   2.038  1.00  0.00    +0.253 C 
ATOM     10  O   UNL     1     -40.675 157.967   2.806  1.00  0.00    -0.269 OA
ATOM     11  H   UNL     1     -37.902 158.836   1.644  1.00  0.00    +0.163 HD
BRANCH   9  12
ATOM     12  C   UNL     1     -40.219 159.480   1.045  1.00  0.00    +0.063 A 
ATOM     13  C   UNL     1     -41.462 160.071   0.857  1.00  0.00    +0.025 A 
ATOM     14  C   UNL     1     -39.328 160.094   0.092  1.00  0.00    -0.013 A 
ATOM     15  N   UNL     1     -41.347 160.963  -0.182  1.00  0.00    -0.358 N 
ATOM     16  C   UNL     1     -40.061 161.014  -0.652  1.00  0.00    +0.043 A 
ATOM     17  C   UNL     1     -42.759 159.926   1.570  1.00  0.00    +0.065 C 
ATOM     18  C   UNL     1     -37.875 159.776  -0.043  1.00  0.00    +0.047 C 
ATOM     19  H   UNL     1     -42.118 161.527  -0.529  1.00  0.00    +0.166 HD
BRANCH  16  20
ATOM     20  C   UNL     1     -39.666 161.897  -1.698  1.00  0.00    +0.041 C 
ATOM     21  C   UNL     1     -39.237 161.621  -2.941  1.00  0.00    +0.051 C 
ATOM     22  C   UNL     1     -39.026 160.304  -3.652  1.00  0.00    +0.256 C 
ATOM     23  C   UNL     1     -38.859 162.670  -3.910  1.00  0.00    +0.014 A 
ATOM     24  O   UNL     1     -39.221 159.178  -3.232  1.00  0.00    -0.269 OA
ATOM     25  N   UNL     1     -38.563 160.633  -4.914  1.00  0.00    -0.321 N 
ATOM     26  C   UNL     1     -38.836 164.053  -3.857  1.00  0.00    +0.050 A 
ATOM     27  C   UNL     1     -38.462 162.007  -5.078  1.00  0.00    +0.049 A 
ATOM     28  C   UNL     1     -38.409 164.739  -4.994  1.00  0.00    +0.123 A 
ATOM     29  C   UNL     1     -38.036 162.674  -6.211  1.00  0.00    +0.030 A 
ATOM     30  C   UNL     1     -38.012 164.067  -6.160  1.00  0.00    +0.041 A 
ATOM     31  H   UNL     1     -38.339 159.936  -5.609  1.00  0.00    +0.170 HD
ATOM     32  F   UNL     1     -38.375 166.078  -4.973  1.00  0.00    -0.207 F 
ENDBRANCH  16  20
ENDBRANCH   9  12
ENDBRANCH   1   8
TORSDOF 7
ENDMDL
MODEL 2
REMARK VINA RESULT:   -10.055      1.755      2.278
REMARK INTER + INTRA:         -14.091
REMARK INTER:                 -13.650
REMARK INTRA:                  -0.440
REMARK UNBOUND:                 0.079
REMARK SMILES CCN(CC)CCNC(=O)c1c(C)[nH]c(/C=C2\C(=O)Nc3ccc(F)cc32)c1C
REMARK SMILES IDX 7 1 6 2 3 3 2 4 1 5 4 6 5 7 8 8 9 9 10 10 11 12 12 13 28 14
REMARK SMILES IDX 14 15 15 16 13 17 29 18 16 20 17 21 18 22 27 23 19 24 20 25
REMARK SMILES IDX 26 26 21 27 24 28 22 29 23 30 25 32
REMARK H PARENT 8 11 14 19 20 31
ROOT
ATOM      1  C   UNL     1     -38.232 157.933   3.596  1.00  0.00    +0.131 C 
ENDROOT
BRANCH   1   2
ATOM      2  C   UNL     1     -36.876 157.215   3.500  1.00  0.00    +0.105 C 
BRANCH   2   3
ATOM      3  N   UNL     1     -35.879 157.795   4.414  1.00  0.00    -0.302 NA
BRANCH   3   4
ATOM      4  C   UNL     1     -34.901 156.819   4.917  1.00  0.00    +0.081 C 
ATOM      5  C   UNL     1     -33.454 157.194   4.614  1.00  0.00    +0.021 C 
ENDBRANCH   3   4
BRANCH   3   6
ATOM      6  C   UNL     1     -36.503 158.556   5.510  1.00  0.00    +0.081 C 
ATOM      7  C   UNL     1     -36.241 158.038   6.922  1.00  0.00    +0.021 C 
ENDBRANCH   3   6
ENDBRANCH   2   3
ENDBRANCH   1   2
BRANCH   1   8
ATOM      8  N   UNL     1     -38.622 158.508   2.322  1.00  0.00    -0.351 N 
ATOM      9  C   UNL     1     -39.939 158.497   1.913  1.00  0.00    +0.253 C 
ATOM     10  O   UNL     1     -40.823 157.907   2.526  1.00  0.00    -0.269 OA
ATOM     11  H   UNL     1     -38.063 159.265   1.952  1.00  0.00    +0.163 HD
BRANCH   9  12
ATOM     12  C   UNL     1     -40.212 159.307   0.719  1.00  0.00    +0.063 A 
ATOM     13  C   UNL     1     -41.314 160.120   0.483  1.00  0.00    +0.025 A 
ATOM     14  C   UNL     1     -39.353 159.442  -0.431  1.00  0.00    -0.013 A 
ATOM     15  N   UNL     1     -41.158 160.682  -0.760  1.00  0.00    -0.358 N 
ATOM     16  C   UNL     1     -39.969 160.307  -1.330  1.00  0.00    +0.043 A 
ATOM     17  C   UNL     1     -42.499 160.467   1.312  1.00  0.00    +0.065 C 
ATOM     18  C   UNL     1     -38.035 158.759  -0.594  1.00  0.00    +0.047 C 
ATOM     19  H   UNL     1     -41.831 161.317  -1.181  1.00  0.00    +0.166 HD
BRANCH  16  20
ATOM     20  C   UNL     1     -39.546 160.793  -2.601  1.00  0.00    +0.041 C 
ATOM     21  C   UNL     1     -39.112 162.015  -2.954  1.00  0.00    +0.051 C 
ATOM     22  C   UNL     1     -38.922 163.277  -2.144  1.00  0.00    +0.256 C 
ATOM     23  C   UNL     1     -38.713 162.355  -4.335  1.00  0.00    +0.014 A 
ATOM     24  O   UNL     1     -39.121 163.450  -0.956  1.00  0.00    -0.269 OA
ATOM     25  N   UNL     1     -38.458 164.226  -3.038  1.00  0.00    -0.321 N 
ATOM     26  C   UNL     1     -38.662 161.636  -5.517  1.00  0.00    +0.050 A 
ATOM     27  C   UNL     1     -38.330 163.702  -4.317  1.00  0.00    +0.049 A 
ATOM     28  C   UNL     1     -38.221 162.301  -6.662  1.00  0.00    +0.123 A 
ATOM     29  C   UNL     1     -37.892 164.373  -5.443  1.00  0.00    +0.030 A 
ATOM     30  C   UNL     1     -37.840 163.650  -6.635  1.00  0.00    +0.041 A 
ATOM     31  H   UNL     1     -38.242 165.172  -2.762  1.00  0.00    +0.170 HD
ATOM     32  F   UNL     1     -38.161 161.632  -7.821  1.00  0.00    -0.207 F 
ENDBRANCH  16  20
ENDBRANCH   9  12
ENDBRANCH   1   8
TORSDOF 7
ENDMDL
MODEL 3
REMARK VINA RESULT:    -9.707      3.518      5.822
REMARK INTER + INTRA:         -13.601
REMARK INTER:                 -12.978
REMARK INTRA:                  -0.623
REMARK UNBOUND:                 0.079
REMARK SMILES CCN(CC)CCNC(=O)c1c(C)[nH]c(/C=C2\C(=O)Nc3ccc(F)cc32)c1C
REMARK SMILES IDX 7 1 6 2 3 3 2 4 1 5 4 6 5 7 8 8 9 9 10 10 11 12 12 13 28 14
REMARK SMILES IDX 14 15 15 16 13 17 29 18 16 20 17 21 18 22 27 23 19 24 20 25
REMARK SMILES IDX 26 26 21 27 24 28 22 29 23 30 25 32
REMARK H PARENT 8 11 14 19 20 31
ROOT
ATOM      1  C   UNL     1     -41.222 160.631   0.036  1.00  0.00    +0.131 C 
ENDROOT
BRANCH   1   2
ATOM      2  C   UNL     1     -40.754 159.178   0.222  1.00  0.00    +0.105 C 
BRANCH   2   3
ATOM      3  N   UNL     1     -39.716 159.062   1.260  1.00  0.00    -0.302 NA
BRANCH   3   4
ATOM      4  C   UNL     1     -38.469 158.446   0.782  1.00  0.00    +0.081 C 
ATOM      5  C   UNL     1     -38.529 158.000  -0.675  1.00  0.00    +0.021 C 
ENDBRANCH   3   4
BRANCH   3   6
ATOM      6  C   UNL     1     -40.217 158.405   2.479  1.00  0.00    +0.081 C 
ATOM      7  C   UNL     1     -41.732 158.411   2.671  1.00  0.00    +0.021 C 
ENDBRANCH   3   6
ENDBRANCH   2   3
ENDBRANCH   1   2
BRANCH   1   8
ATOM      8  N   UNL     1     -40.712 161.201  -1.198  1.00  0.00    -0.351 N 
ATOM      9  C   UNL     1     -39.484 161.826  -1.234  1.00  0.00    +0.253 C 
ATOM     10  O   UNL     1     -38.817 162.045  -0.228  1.00  0.00    -0.269 OA
ATOM     11  H   UNL     1     -41.010 160.786  -2.070  1.00  0.00    +0.163 HD
BRANCH   9  12
ATOM     12  C   UNL     1     -39.006 162.150  -2.583  1.00  0.00    +0.063 A 
ATOM     13  C   UNL     1     -38.664 163.401  -3.082  1.00  0.00    +0.025 A 
ATOM     14  C   UNL     1     -38.760 161.208  -3.647  1.00  0.00    -0.013 A 
ATOM     15  N   UNL     1     -38.276 163.238  -4.389  1.00  0.00    -0.358 N 
ATOM     16  C   UNL     1     -38.303 161.917  -4.754  1.00  0.00    +0.043 A 
ATOM     17  C   UNL     1     -38.622 164.751  -2.459  1.00  0.00    +0.065 C 
ATOM     18  C   UNL     1     -38.967 159.732  -3.542  1.00  0.00    +0.047 C 
ATOM     19  H   UNL     1     -37.981 164.002  -4.990  1.00  0.00    +0.166 HD
BRANCH  16  20
ATOM     20  C   UNL     1     -37.899 161.475  -6.047  1.00  0.00    +0.041 C 
ATOM     21  C   UNL     1     -37.847 162.147  -7.209  1.00  0.00    +0.051 C 
ATOM     22  C   UNL     1     -38.191 163.580  -7.546  1.00  0.00    +0.256 C 
ATOM     23  C   UNL     1     -37.403 161.528  -8.474  1.00  0.00    +0.014 A 
ATOM     24  O   UNL     1     -38.591 164.457  -6.803  1.00  0.00    -0.269 OA
ATOM     25  N   UNL     1     -37.950 163.710  -8.903  1.00  0.00    -0.321 N 
ATOM     26  C   UNL     1     -36.964 160.259  -8.811  1.00  0.00    +0.050 A 
ATOM     27  C   UNL     1     -37.490 162.523  -9.455  1.00  0.00    +0.049 A 
ATOM     28  C   UNL     1     -36.618 160.025 -10.143  1.00  0.00    +0.123 A 
ATOM     29  C   UNL     1     -37.151 162.305 -10.777  1.00  0.00    +0.030 A 
ATOM     30  C   UNL     1     -36.708 161.028 -11.119  1.00  0.00    +0.041 A 
ATOM     31  H   UNL     1     -38.095 164.577  -9.399  1.00  0.00    +0.170 HD
ATOM     32  F   UNL     1     -36.189 158.807 -10.500  1.00  0.00    -0.207 F 
ENDBRANCH  16  20
ENDBRANCH   9  12
ENDBRANCH   1   8
TORSDOF 7
ENDMDL
MODEL 4
REMARK VINA RESULT:    -9.703      3.166      5.540
REMARK INTER + INTRA:         -13.595
REMARK INTER:                 -13.304
REMARK INTRA:                  -0.291
REMARK UNBOUND:                 0.079
REMARK SMILES CCN(CC)CCNC(=O)c1c(C)[nH]c(/C=C2\C(=O)Nc3ccc(F)cc32)c1C
REMARK SMILES IDX 7 1 6 2 3 3 2 4 1 5 4 6 5 7 8 8 9 9 10 10 11 12 12 13 28 14
REMARK SMILES IDX 14 15 15 16 13 17 29 18 16 20 17 21 18 22 27 23 19 24 20 25
REMARK SMILES IDX 26 26 21 27 24 28 22 29 23 30 25 32
REMARK H PARENT 8 11 14 19 20 31
ROOT
ATOM      1  C   UNL     1     -40.862 160.873   0.103  1.00  0.00    +0.131 C 
ENDROOT
BRANCH   1   2
ATOM      2  C   UNL     1     -40.670 159.366   0.343  1.00  0.00    +0.105 C 
BRANCH   2   3
ATOM      3  N   UNL     1     -39.625 159.096   1.345  1.00  0.00    -0.302 NA
BRANCH   3   4
ATOM      4  C   UNL     1     -38.433 158.437   0.791  1.00  0.00    +0.081 C 
ATOM      5  C   UNL     1     -38.585 158.030  -0.671  1.00  0.00    +0.021 C 
ENDBRANCH   3   4
BRANCH   3   6
ATOM      6  C   UNL     1     -40.150 158.378   2.519  1.00  0.00    +0.081 C 
ATOM      7  C   UNL     1     -41.669 158.366   2.676  1.00  0.00    +0.021 C 
ENDBRANCH   3   6
ENDBRANCH   2   3
ENDBRANCH   1   2
BRANCH   1   8
ATOM      8  N   UNL     1     -40.526 161.242  -1.260  1.00  0.00    -0.351 N 
ATOM      9  C   UNL     1     -39.443 162.053  -1.526  1.00  0.00    +0.253 C 
ATOM     10  O   UNL     1     -38.786 162.600  -0.647  1.00  0.00    -0.269 OA
ATOM     11  H   UNL     1     -40.777 160.601  -2.000  1.00  0.00    +0.163 HD
BRANCH   9  12
ATOM     12  C   UNL     1     -39.096 162.155  -2.949  1.00  0.00    +0.063 A 
ATOM     13  C   UNL     1     -38.903 161.114  -3.850  1.00  0.00    +0.025 A 
ATOM     14  C   UNL     1     -38.927 163.376  -3.698  1.00  0.00    -0.013 A 
ATOM     15  N   UNL     1     -38.589 161.667  -5.067  1.00  0.00    -0.358 N 
ATOM     16  C   UNL     1     -38.617 163.037  -5.011  1.00  0.00    +0.043 A 
ATOM     17  C   UNL     1     -39.015 159.637  -3.713  1.00  0.00    +0.065 C 
ATOM     18  C   UNL     1     -39.071 164.749  -3.129  1.00  0.00    +0.047 C 
ATOM     19  H   UNL     1     -38.393 161.122  -5.901  1.00  0.00    +0.166 HD
BRANCH  16  20
ATOM     20  C   UNL     1     -38.375 163.851  -6.155  1.00  0.00    +0.041 C 
ATOM     21  C   UNL     1     -38.088 163.496  -7.419  1.00  0.00    +0.051 C 
ATOM     22  C   UNL     1     -37.928 162.135  -8.059  1.00  0.00    +0.256 C 
ATOM     23  C   UNL     1     -37.857 164.480  -8.496  1.00  0.00    +0.014 A 
ATOM     24  O   UNL     1     -38.040 161.039  -7.542  1.00  0.00    -0.269 OA
ATOM     25  N   UNL     1     -37.626 162.383  -9.387  1.00  0.00    -0.321 N 
ATOM     26  C   UNL     1     -37.866 165.863  -8.540  1.00  0.00    +0.050 A 
ATOM     27  C   UNL     1     -37.583 163.744  -9.655  1.00  0.00    +0.049 A 
ATOM     28  C   UNL     1     -37.596 166.475  -9.765  1.00  0.00    +0.123 A 
ATOM     29  C   UNL     1     -37.314 164.336 -10.874  1.00  0.00    +0.030 A 
ATOM     30  C   UNL     1     -37.322 165.730 -10.921  1.00  0.00    +0.041 A 
ATOM     31  H   UNL     1     -37.468 161.643 -10.055  1.00  0.00    +0.170 HD
ATOM     32  F   UNL     1     -37.597 167.813  -9.839  1.00  0.00    -0.207 F 
ENDBRANCH  16  20
ENDBRANCH   9  12
ENDBRANCH   1   8
TORSDOF 7
ENDMDL
MODEL 5
REMARK VINA RESULT:    -9.691      3.747     10.498
REMARK INTER + INTRA:         -13.577
REMARK INTER:                 -12.546
REMARK INTRA:                  -1.031
REMARK UNBOUND:                 0.079
REMARK SMILES CCN(CC)CCNC(=O)c1c(C)[nH]c(/C=C2\C(=O)Nc3ccc(F)cc32)c1C
REMARK SMILES IDX 7 1 6 2 3 3 2 4 1 5 4 6 5 7 8 8 9 9 10 10 11 12 12 13 28 14
REMARK SMILES IDX 14 15 15 16 13 17 29 18 16 20 17 21 18 22 27 23 19 24 20 25
REMARK SMILES IDX 26 26 21 27 24 28 22 29 23 30 25 32
REMARK H PARENT 8 11 14 19 20 31
ROOT
ATOM      1  C   UNL     1     -37.923 165.832  -7.631  1.00  0.00    +0.131 C 
ENDROOT
BRANCH   1   2
ATOM      2  C   UNL     1     -38.236 165.738  -9.133  1.00  0.00    +0.105 C 
BRANCH   2   3
ATOM      3  N   UNL     1     -37.048 165.368  -9.921  1.00  0.00    -0.302 NA
BRANCH   3   4
ATOM      4  C   UNL     1     -36.836 166.217 -11.103  1.00  0.00    +0.081 C 
ATOM      5  C   UNL     1     -35.613 167.121 -10.994  1.00  0.00    +0.021 C 
ENDBRANCH   3   4
BRANCH   3   6
ATOM      6  C   UNL     1     -37.031 163.937 -10.267  1.00  0.00    +0.081 C 
ATOM      7  C   UNL     1     -38.391 163.247 -10.339  1.00  0.00    +0.021 C 
ENDBRANCH   3   6
ENDBRANCH   2   3
ENDBRANCH   1   2
BRANCH   1   8
ATOM      8  N   UNL     1     -38.309 164.621  -6.930  1.00  0.00    -0.351 N 
ATOM      9  C   UNL     1     -37.638 164.216  -5.795  1.00  0.00    +0.253 C 
ATOM     10  O   UNL     1     -36.623 164.769  -5.387  1.00  0.00    -0.269 OA
ATOM     11  H   UNL     1     -39.274 164.326  -6.988  1.00  0.00    +0.163 HD
BRANCH   9  12
ATOM     12  C   UNL     1     -38.277 163.107  -5.075  1.00  0.00    +0.063 A 
ATOM     13  C   UNL     1     -38.430 161.795  -5.505  1.00  0.00    +0.025 A 
ATOM     14  C   UNL     1     -38.838 163.168  -3.747  1.00  0.00    -0.013 A 
ATOM     15  N   UNL     1     -39.087 161.105  -4.516  1.00  0.00    -0.358 N 
ATOM     16  C   UNL     1     -39.328 161.905  -3.429  1.00  0.00    +0.043 A 
ATOM     17  C   UNL     1     -37.994 161.088  -6.739  1.00  0.00    +0.065 C 
ATOM     18  C   UNL     1     -38.866 164.390  -2.890  1.00  0.00    +0.047 C 
ATOM     19  H   UNL     1     -39.331 160.121  -4.581  1.00  0.00    +0.166 HD
BRANCH  16  20
ATOM     20  C   UNL     1     -39.956 161.415  -2.247  1.00  0.00    +0.041 C 
ATOM     21  C   UNL     1     -39.551 160.465  -1.388  1.00  0.00    +0.051 C 
ATOM     22  C   UNL     1     -38.312 159.599  -1.373  1.00  0.00    +0.256 C 
ATOM     23  C   UNL     1     -40.336 160.071  -0.200  1.00  0.00    +0.014 A 
ATOM     24  O   UNL     1     -37.385 159.593  -2.161  1.00  0.00    -0.269 OA
ATOM     25  N   UNL     1     -38.434 158.796  -0.253  1.00  0.00    -0.321 N 
ATOM     26  C   UNL     1     -41.545 160.493   0.326  1.00  0.00    +0.050 A 
ATOM     27  C   UNL     1     -39.607 159.061   0.439  1.00  0.00    +0.049 A 
ATOM     28  C   UNL     1     -41.992 159.879   1.496  1.00  0.00    +0.123 A 
ATOM     29  C   UNL     1     -40.038 158.444   1.599  1.00  0.00    +0.030 A 
ATOM     30  C   UNL     1     -41.256 158.868   2.131  1.00  0.00    +0.041 A 
ATOM     31  H   UNL     1     -37.736 158.114   0.005  1.00  0.00    +0.170 HD
ATOM     32  F   UNL     1     -43.158 160.266   2.029  1.00  0.00    -0.207 F 
ENDBRANCH  16  20
ENDBRANCH   9  12
ENDBRANCH   1   8
TORSDOF 7
ENDMDL
MODEL 6
REMARK VINA RESULT:    -9.610      2.281      3.048
REMARK INTER + INTRA:         -13.463
REMARK INTER:                 -12.903
REMARK INTRA:                  -0.560
REMARK UNBOUND:                 0.079
REMARK SMILES CCN(CC)CCNC(=O)c1c(C)[nH]c(/C=C2\C(=O)Nc3ccc(F)cc32)c1C
REMARK SMILES IDX 7 1 6 2 3 3 2 4 1 5 4 6 5 7 8 8 9 9 10 10 11 12 12 13 28 14
REMARK SMILES IDX 14 15 15 16 13 17 29 18 16 20 17 21 18 22 27 23 19 24 20 25
REMARK SMILES IDX 26 26 21 27 24 28 22 29 23 30 25 32
REMARK H PARENT 8 11 14 19 20 31
ROOT
ATOM      1  C   UNL     1     -38.463 157.573   1.979  1.00  0.00    +0.131 C 
ENDROOT
BRANCH   1   2
ATOM      2  C   UNL     1     -37.637 158.152   3.140  1.00  0.00    +0.105 C 
BRANCH   2   3
ATOM      3  N   UNL     1     -36.625 157.198   3.624  1.00  0.00    -0.302 NA
BRANCH   3   4
ATOM      4  C   UNL     1     -37.193 155.936   4.120  1.00  0.00    +0.081 C 
ATOM      5  C   UNL     1     -37.541 155.966   5.605  1.00  0.00    +0.021 C 
ENDBRANCH   3   4
BRANCH   3   6
ATOM      6  C   UNL     1     -35.709 157.807   4.603  1.00  0.00    +0.081 C 
ATOM      7  C   UNL     1     -34.263 157.316   4.567  1.00  0.00    +0.021 C 
ENDBRANCH   3   6
ENDBRANCH   2   3
ENDBRANCH   1   2
BRANCH   1   8
ATOM      8  N   UNL     1     -38.366 158.403   0.791  1.00  0.00    -0.351 N 
ATOM      9  C   UNL     1     -39.465 159.083   0.312  1.00  0.00    +0.253 C 
ATOM     10  O   UNL     1     -40.593 158.938   0.772  1.00  0.00    -0.269 OA
ATOM     11  H   UNL     1     -37.472 158.824   0.579  1.00  0.00    +0.163 HD
BRANCH   9  12
ATOM     12  C   UNL     1     -39.165 160.050  -0.752  1.00  0.00    +0.063 A 
ATOM     13  C   UNL     1     -38.932 161.413  -0.616  1.00  0.00    +0.025 A 
ATOM     14  C   UNL     1     -39.016 159.750  -2.155  1.00  0.00    -0.013 A 
ATOM     15  N   UNL     1     -38.699 161.924  -1.869  1.00  0.00    -0.358 N 
ATOM     16  C   UNL     1     -38.721 160.937  -2.820  1.00  0.00    +0.043 A 
ATOM     17  C   UNL     1     -38.865 162.304   0.574  1.00  0.00    +0.065 C 
ATOM     18  C   UNL     1     -39.155 158.389  -2.754  1.00  0.00    +0.047 C 
ATOM     19  H   UNL     1     -38.506 162.904  -2.051  1.00  0.00    +0.166 HD
BRANCH  16  20
ATOM     20  C   UNL     1     -38.460 161.198  -4.196  1.00  0.00    +0.041 C 
ATOM     21  C   UNL     1     -38.445 162.365  -4.862  1.00  0.00    +0.051 C 
ATOM     22  C   UNL     1     -38.694 163.781  -4.395  1.00  0.00    +0.256 C 
ATOM     23  C   UNL     1     -38.157 162.459  -6.308  1.00  0.00    +0.014 A 
ATOM     24  O   UNL     1     -38.958 164.172  -3.274  1.00  0.00    -0.269 OA
ATOM     25  N   UNL     1     -38.552 164.573  -5.521  1.00  0.00    -0.321 N 
ATOM     26  C   UNL     1     -37.854 161.523  -7.282  1.00  0.00    +0.050 A 
ATOM     27  C   UNL     1     -38.238 163.816  -6.641  1.00  0.00    +0.049 A 
ATOM     28  C   UNL     1     -37.637 161.985  -8.580  1.00  0.00    +0.123 A 
ATOM     29  C   UNL     1     -38.026 164.288  -7.923  1.00  0.00    +0.030 A 
ATOM     30  C   UNL     1     -37.720 163.347  -8.906  1.00  0.00    +0.041 A 
ATOM     31  H   UNL     1     -38.663 165.576  -5.498  1.00  0.00    +0.170 HD
ATOM     32  F   UNL     1     -37.342 161.103  -9.544  1.00  0.00    -0.207 F 
ENDBRANCH  16  20
ENDBRANCH   9  12
ENDBRANCH   1   8
TORSDOF 7
ENDMDL
MODEL 7
REMARK VINA RESULT:    -9.600      3.974     10.353
REMARK INTER + INTRA:         -13.450
REMARK INTER:                 -12.238
REMARK INTRA:                  -1.212
REMARK UNBOUND:                 0.079
REMARK SMILES CCN(CC)CCNC(=O)c1c(C)[nH]c(/C=C2\C(=O)Nc3ccc(F)cc32)c1C
REMARK SMILES IDX 7 1 6 2 3 3 2 4 1 5 4 6 5 7 8 8 9 9 10 10 11 12 12 13 28 14
REMARK SMILES IDX 14 15 15 16 13 17 29 18 16 20 17 21 18 22 27 23 19 24 20 25
REMARK SMILES IDX 26 26 21 27 24 28 22 29 23 30 25 32
REMARK H PARENT 8 11 14 19 20 31
ROOT
ATOM      1  C   UNL     1     -38.078 162.584  -9.511  1.00  0.00    +0.131 C 
ENDROOT
BRANCH   1   2
ATOM      2  C   UNL     1     -38.236 163.980 -10.135  1.00  0.00    +0.105 C 
BRANCH   2   3
ATOM      3  N   UNL     1     -36.985 164.453 -10.751  1.00  0.00    -0.302 NA
BRANCH   3   4
ATOM      4  C   UNL     1     -35.853 163.532 -10.571  1.00  0.00    +0.081 C 
ATOM      5  C   UNL     1     -34.526 164.090 -11.075  1.00  0.00    +0.021 C 
ENDBRANCH   3   4
BRANCH   3   6
ATOM      6  C   UNL     1     -36.643 165.825 -10.336  1.00  0.00    +0.081 C 
ATOM      7  C   UNL     1     -37.434 166.388  -9.159  1.00  0.00    +0.021 C 
ENDBRANCH   3   6
ENDBRANCH   2   3
ENDBRANCH   1   2
BRANCH   1   8
ATOM      8  N   UNL     1     -38.475 162.577  -8.114  1.00  0.00    -0.351 N 
ATOM      9  C   UNL     1     -37.576 162.237  -7.126  1.00  0.00    +0.253 C 
ATOM     10  O   UNL     1     -36.451 161.810  -7.364  1.00  0.00    -0.269 OA
ATOM     11  H   UNL     1     -39.213 163.205  -7.828  1.00  0.00    +0.163 HD
BRANCH   9  12
ATOM     12  C   UNL     1     -38.051 162.490  -5.759  1.00  0.00    +0.063 A 
ATOM     13  C   UNL     1     -37.851 163.632  -4.993  1.00  0.00    +0.025 A 
ATOM     14  C   UNL     1     -38.859 161.602  -4.962  1.00  0.00    -0.013 A 
ATOM     15  N   UNL     1     -38.464 163.434  -3.780  1.00  0.00    -0.358 N 
ATOM     16  C   UNL     1     -39.102 162.221  -3.739  1.00  0.00    +0.043 A 
ATOM     17  C   UNL     1     -37.174 164.925  -5.280  1.00  0.00    +0.065 C 
ATOM     18  C   UNL     1     -39.339 160.258  -5.405  1.00  0.00    +0.047 C 
ATOM     19  H   UNL     1     -38.463 164.117  -3.029  1.00  0.00    +0.166 HD
BRANCH  16  20
ATOM     20  C   UNL     1     -39.854 161.794  -2.607  1.00  0.00    +0.041 C 
ATOM     21  C   UNL     1     -39.597 160.816  -1.722  1.00  0.00    +0.051 C 
ATOM     22  C   UNL     1     -38.441 159.847  -1.617  1.00  0.00    +0.256 C 
ATOM     23  C   UNL     1     -40.497 160.498  -0.595  1.00  0.00    +0.014 A 
ATOM     24  O   UNL     1     -37.463 159.757  -2.335  1.00  0.00    -0.269 OA
ATOM     25  N   UNL     1     -38.714 159.063  -0.510  1.00  0.00    -0.321 N 
ATOM     26  C   UNL     1     -41.700 161.024  -0.159  1.00  0.00    +0.050 A 
ATOM     27  C   UNL     1     -39.907 159.432   0.095  1.00  0.00    +0.049 A 
ATOM     28  C   UNL     1     -42.283 160.458   0.976  1.00  0.00    +0.123 A 
ATOM     29  C   UNL     1     -40.473 158.860   1.219  1.00  0.00    +0.030 A 
ATOM     30  C   UNL     1     -41.686 159.390   1.661  1.00  0.00    +0.041 A 
ATOM     31  H   UNL     1     -38.098 158.325  -0.202  1.00  0.00    +0.170 HD
ATOM     32  F   UNL     1     -43.448 160.946   1.422  1.00  0.00    -0.207 F 
ENDBRANCH  16  20
ENDBRANCH   9  12
ENDBRANCH   1   8
TORSDOF 7
ENDMDL
MODEL 8
REMARK VINA RESULT:    -9.342      3.186      5.377
REMARK INTER + INTRA:         -13.087
REMARK INTER:                 -12.564
REMARK INTRA:                  -0.523
REMARK UNBOUND:                 0.079
REMARK SMILES CCN(CC)CCNC(=O)c1c(C)[nH]c(/C=C2\C(=O)Nc3ccc(F)cc32)c1C
REMARK SMILES IDX 7 1 6 2 3 3 2 4 1 5 4 6 5 7 8 8 9 9 10 10 11 12 12 13 28 14
REMARK SMILES IDX 14 15 15 16 13 17 29 18 16 20 17 21 18 22 27 23 19 24 20 25
REMARK SMILES IDX 26 26 21 27 24 28 22 29 23 30 25 32
REMARK H PARENT 8 11 14 19 20 31
ROOT
ATOM      1  C   UNL     1     -38.789 160.085   0.491  1.00  0.00    +0.131 C 
ENDROOT
BRANCH   1   2
ATOM      2  C   UNL     1     -39.562 158.757   0.440  1.00  0.00    +0.105 C 
BRANCH   2   3
ATOM      3  N   UNL     1     -39.432 157.995   1.693  1.00  0.00    -0.302 NA
BRANCH   3   4
ATOM      4  C   UNL     1     -40.402 158.389   2.726  1.00  0.00    +0.081 C 
ATOM      5  C   UNL     1     -41.742 158.847   2.162  1.00  0.00    +0.021 C 
ENDBRANCH   3   4
BRANCH   3   6
ATOM      6  C   UNL     1     -38.052 158.001   2.209  1.00  0.00    +0.081 C 
ATOM      7  C   UNL     1     -37.847 157.373   3.585  1.00  0.00    +0.021 C 
ENDBRANCH   3   6
ENDBRANCH   2   3
ENDBRANCH   1   2
BRANCH   1   8
ATOM      8  N   UNL     1     -38.581 160.630  -0.838  1.00  0.00    -0.351 N 
ATOM      9  C   UNL     1     -39.540 161.417  -1.439  1.00  0.00    +0.253 C 
ATOM     10  O   UNL     1     -40.653 161.600  -0.954  1.00  0.00    -0.269 OA
ATOM     11  H   UNL     1     -37.631 160.809  -1.134  1.00  0.00    +0.163 HD
BRANCH   9  12
ATOM     12  C   UNL     1     -39.100 162.076  -2.675  1.00  0.00    +0.063 A 
ATOM     13  C   UNL     1     -38.727 163.405  -2.839  1.00  0.00    +0.025 A 
ATOM     14  C   UNL     1     -38.934 161.446  -3.961  1.00  0.00    -0.013 A 
ATOM     15  N   UNL     1     -38.395 163.585  -4.159  1.00  0.00    -0.358 N 
ATOM     16  C   UNL     1     -38.490 162.411  -4.860  1.00  0.00    +0.043 A 
ATOM     17  C   UNL     1     -38.607 164.537  -1.881  1.00  0.00    +0.065 C 
ATOM     18  C   UNL     1     -39.197 160.003  -4.242  1.00  0.00    +0.047 C 
ATOM     19  H   UNL     1     -38.092 164.473  -4.548  1.00  0.00    +0.166 HD
BRANCH  16  20
ATOM     20  C   UNL     1     -38.153 162.319  -6.241  1.00  0.00    +0.041 C 
ATOM     21  C   UNL     1     -38.060 163.285  -7.171  1.00  0.00    +0.051 C 
ATOM     22  C   UNL     1     -38.275 164.779  -7.079  1.00  0.00    +0.256 C 
ATOM     23  C   UNL     1     -37.700 163.012  -8.577  1.00  0.00    +0.014 A 
ATOM     24  O   UNL     1     -38.577 165.441  -6.103  1.00  0.00    -0.269 OA
ATOM     25  N   UNL     1     -38.048 165.265  -8.354  1.00  0.00    -0.321 N 
ATOM     26  C   UNL     1     -37.388 161.858  -9.274  1.00  0.00    +0.050 A 
ATOM     27  C   UNL     1     -37.711 164.248  -9.236  1.00  0.00    +0.049 A 
ATOM     28  C   UNL     1     -37.090 161.981 -10.632  1.00  0.00    +0.123 A 
ATOM     29  C   UNL     1     -37.420 164.384 -10.580  1.00  0.00    +0.030 A 
ATOM     30  C   UNL     1     -37.104 163.222 -11.284  1.00  0.00    +0.041 A 
ATOM     31  H   UNL     1     -38.121 166.246  -8.582  1.00  0.00    +0.170 HD
ATOM     32  F   UNL     1     -36.784 160.881 -11.333  1.00  0.00    -0.207 F 
ENDBRANCH  16  20
ENDBRANCH   9  12
ENDBRANCH   1   8
TORSDOF 7
ENDMDL
MODEL 9
REMARK VINA RESULT:    -9.324      3.862      9.724
REMARK INTER + INTRA:         -13.060
REMARK INTER:                 -12.034
REMARK INTRA:                  -1.026
REMARK UNBOUND:                 0.079
REMARK SMILES CCN(CC)CCNC(=O)c1c(C)[nH]c(/C=C2\C(=O)Nc3ccc(F)cc32)c1C
REMARK SMILES IDX 7 1 6 2 3 3 2 4 1 5 4 6 5 7 8 8 9 9 10 10 11 12 12 13 28 14
REMARK SMILES IDX 14 15 15 16 13 17 29 18 16 20 17 21 18 22 27 23 19 24 20 25
REMARK SMILES IDX 26 26 21 27 24 28 22 29 23 30 25 32
REMARK H PARENT 8 11 14 19 20 31
ROOT
ATOM      1  C   UNL     1     -36.344 161.304  -8.470  1.00  0.00    +0.131 C 
ENDROOT
BRANCH   1   2
ATOM      2  C   UNL     1     -36.772 159.855  -8.757  1.00  0.00    +0.105 C 
BRANCH   2   3
ATOM      3  N   UNL     1     -36.870 159.585 -10.201  1.00  0.00    -0.302 NA
BRANCH   3   4
ATOM      4  C   UNL     1     -35.987 158.501 -10.660  1.00  0.00    +0.081 C 
ATOM      5  C   UNL     1     -35.351 157.710  -9.522  1.00  0.00    +0.021 C 
ENDBRANCH   3   4
BRANCH   3   6
ATOM      6  C   UNL     1     -36.702 160.804 -11.010  1.00  0.00    +0.081 C 
ATOM      7  C   UNL     1     -37.932 161.273 -11.783  1.00  0.00    +0.021 C 
ENDBRANCH   3   6
ENDBRANCH   2   3
ENDBRANCH   1   2
BRANCH   1   8
ATOM      8  N   UNL     1     -36.773 161.734  -7.152  1.00  0.00    -0.351 N 
ATOM      9  C   UNL     1     -37.915 162.490  -6.991  1.00  0.00    +0.253 C 
ATOM     10  O   UNL     1     -38.557 162.939  -7.935  1.00  0.00    -0.269 OA
ATOM     11  H   UNL     1     -36.522 161.158  -6.360  1.00  0.00    +0.163 HD
BRANCH   9  12
ATOM     12  C   UNL     1     -38.342 162.658  -5.596  1.00  0.00    +0.063 A 
ATOM     13  C   UNL     1     -38.216 163.793  -4.805  1.00  0.00    +0.025 A 
ATOM     14  C   UNL     1     -39.017 161.672  -4.790  1.00  0.00    -0.013 A 
ATOM     15  N   UNL     1     -38.744 163.501  -3.571  1.00  0.00    -0.358 N 
ATOM     16  C   UNL     1     -39.256 162.230  -3.538  1.00  0.00    +0.043 A 
ATOM     17  C   UNL     1     -37.685 165.154  -5.081  1.00  0.00    +0.065 C 
ATOM     18  C   UNL     1     -39.384 160.300  -5.252  1.00  0.00    +0.047 C 
ATOM     19  H   UNL     1     -38.771 164.161  -2.799  1.00  0.00    +0.166 HD
BRANCH  16  20
ATOM     20  C   UNL     1     -39.904 161.699  -2.385  1.00  0.00    +0.041 C 
ATOM     21  C   UNL     1     -39.518 160.713  -1.558  1.00  0.00    +0.051 C 
ATOM     22  C   UNL     1     -38.284 159.839  -1.559  1.00  0.00    +0.256 C 
ATOM     23  C   UNL     1     -40.322 160.279  -0.398  1.00  0.00    +0.014 A 
ATOM     24  O   UNL     1     -37.345 159.857  -2.333  1.00  0.00    -0.269 OA
ATOM     25  N   UNL     1     -38.427 158.993  -0.473  1.00  0.00    -0.321 N 
ATOM     26  C   UNL     1     -41.535 160.687   0.127  1.00  0.00    +0.050 A 
ATOM     27  C   UNL     1     -39.609 159.240   0.212  1.00  0.00    +0.049 A 
ATOM     28  C   UNL     1     -42.004 160.032   1.267  1.00  0.00    +0.123 A 
ATOM     29  C   UNL     1     -40.060 158.581   1.341  1.00  0.00    +0.030 A 
ATOM     30  C   UNL     1     -41.283 158.991   1.871  1.00  0.00    +0.041 A 
ATOM     31  H   UNL     1     -37.737 158.298  -0.232  1.00  0.00    +0.170 HD
ATOM     32  F   UNL     1     -43.175 160.405   1.798  1.00  0.00    -0.207 F 
ENDBRANCH  16  20
ENDBRANCH   9  12
ENDBRANCH   1   8
TORSDOF 7
ENDMDL
MODEL 10
REMARK VINA RESULT:    -8.867      6.274     12.966
REMARK INTER + INTRA:         -12.417
REMARK INTER:                 -11.511
REMARK INTRA:                  -0.907
REMARK UNBOUND:                 0.079
REMARK SMILES CCN(CC)CCNC(=O)c1c(C)[nH]c(/C=C2\C(=O)Nc3ccc(F)cc32)c1C
REMARK SMILES IDX 7 1 6 2 3 3 2 4 1 5 4 6 5 7 8 8 9 9 10 10 11 12 12 13 28 14
REMARK SMILES IDX 14 15 15 16 13 17 29 18 16 20 17 21 18 22 27 23 19 24 20 25
REMARK SMILES IDX 26 26 21 27 24 28 22 29 23 30 25 32
REMARK H PARENT 8 11 14 19 20 31
ROOT
ATOM      1  C   UNL     1     -38.250 157.984   3.209  1.00  0.00    +0.131 C 
ENDROOT
BRANCH   1   2
ATOM      2  C   UNL     1     -38.172 157.975   1.674  1.00  0.00    +0.105 C 
BRANCH   2   3
ATOM      3  N   UNL     1     -39.458 158.336   1.055  1.00  0.00    -0.302 NA
BRANCH   3   4
ATOM      4  C   UNL     1     -39.325 158.906  -0.294  1.00  0.00    +0.081 C 
ATOM      5  C   UNL     1     -38.570 158.005  -1.265  1.00  0.00    +0.021 C 
ENDBRANCH   3   4
BRANCH   3   6
ATOM      6  C   UNL     1     -40.278 159.192   1.930  1.00  0.00    +0.081 C 
ATOM      7  C   UNL     1     -41.617 158.610   2.375  1.00  0.00    +0.021 C 
ENDBRANCH   3   6
ENDBRANCH   2   3
ENDBRANCH   1   2
BRANCH   1   8
ATOM      8  N   UNL     1     -37.302 157.053   3.796  1.00  0.00    -0.351 N 
ATOM      9  C   UNL     1     -36.670 157.343   4.986  1.00  0.00    +0.253 C 
ATOM     10  O   UNL     1     -36.770 158.429   5.548  1.00  0.00    -0.269 OA
ATOM     11  H   UNL     1     -37.421 156.069   3.600  1.00  0.00    +0.163 HD
BRANCH   9  12
ATOM     12  C   UNL     1     -35.918 156.222   5.564  1.00  0.00    +0.063 A 
ATOM     13  C   UNL     1     -34.550 155.991   5.485  1.00  0.00    +0.025 A 
ATOM     14  C   UNL     1     -36.465 155.158   6.369  1.00  0.00    -0.013 A 
ATOM     15  N   UNL     1     -34.284 154.827   6.164  1.00  0.00    -0.358 N 
ATOM     16  C   UNL     1     -35.421 154.310   6.729  1.00  0.00    +0.043 A 
ATOM     17  C   UNL     1     -33.437 156.762   4.869  1.00  0.00    +0.065 C 
ATOM     18  C   UNL     1     -37.906 155.023   6.736  1.00  0.00    +0.047 C 
ATOM     19  H   UNL     1     -33.355 154.426   6.253  1.00  0.00    +0.166 HD
BRANCH  16  20
ATOM     20  C   UNL     1     -35.407 153.130   7.528  1.00  0.00    +0.041 C 
ATOM     21  C   UNL     1     -35.069 151.873   7.199  1.00  0.00    +0.051 C 
ATOM     22  C   UNL     1     -34.591 151.280   5.892  1.00  0.00    +0.256 C 
ATOM     23  C   UNL     1     -35.117 150.752   8.160  1.00  0.00    +0.014 A 
ATOM     24  O   UNL     1     -34.398 151.844   4.831  1.00  0.00    -0.269 OA
ATOM     25  N   UNL     1     -34.404 149.931   6.143  1.00  0.00    -0.321 N 
ATOM     26  C   UNL     1     -35.466 150.657   9.495  1.00  0.00    +0.050 A 
ATOM     27  C   UNL     1     -34.705 149.611   7.460  1.00  0.00    +0.049 A 
ATOM     28  C   UNL     1     -35.389 149.401  10.098  1.00  0.00    +0.123 A 
ATOM     29  C   UNL     1     -34.625 148.361   8.044  1.00  0.00    +0.030 A 
ATOM     30  C   UNL     1     -34.976 148.263   9.390  1.00  0.00    +0.041 A 
ATOM     31  H   UNL     1     -34.081 149.287   5.437  1.00  0.00    +0.170 HD
ATOM     32  F   UNL     1     -35.721 149.277  11.390  1.00  0.00    -0.207 F 
ENDBRANCH  16  20
ENDBRANCH   9  12
ENDBRANCH   1   8
TORSDOF 7
ENDMDL
