REMARK SMILES Cc1ccc(=O)n(-c2ccccc2)c1
REMARK SMILES IDX 1 1 2 2 3 3 4 4 5 5 6 6 7 7 14 8 8 9 9 10 13 11 10 12 12 13
REMARK SMILES IDX 11 14
REMARK H PARENT
ROOT
ATOM      1  C   UNL     1      -3.429   1.561  -0.224  1.00  0.00    +0.046 C 
ATOM      2  C   UNL     1      -2.437   0.519   0.198  1.00  0.00    -0.034 C 
ATOM      3  C   UNL     1      -2.944  -0.647   0.875  1.00  0.00    +0.010 C 
ATOM      4  C   UNL     1      -2.113  -1.621   1.254  1.00  0.00    +0.072 C 
ATOM      5  C   UNL     1      -0.646  -1.524   1.008  1.00  0.00    +0.255 C 
ATOM      6  O   UNL     1       0.041  -2.447   1.445  1.00  0.00    -0.269 OA
ATOM      7  N   UNL     1      -0.197  -0.364   0.334  1.00  0.00    -0.284 N 
ATOM      8  C   UNL     1      -1.121   0.617  -0.043  1.00  0.00    +0.098 C 
ENDROOT
BRANCH   7   9
ATOM      9  C   UNL     1       1.214  -0.194   0.052  1.00  0.00    +0.049 A 
ATOM     10  C   UNL     1       1.782   1.089  -0.055  1.00  0.00    +0.027 A 
ATOM     11  C   UNL     1       2.069  -1.290  -0.146  1.00  0.00    +0.027 A 
ATOM     12  C   UNL     1       3.141   1.267  -0.342  1.00  0.00    +0.002 A 
ATOM     13  C   UNL     1       3.427  -1.115  -0.435  1.00  0.00    +0.002 A 
ATOM     14  C   UNL     1       3.963   0.163  -0.534  1.00  0.00    +0.000 A 
ENDBRANCH   7   9
TORSDOF 1
