MODEL 1
REMARK VINA RESULT:    -7.910      0.000      0.000
REMARK INTER + INTRA:          -8.588
REMARK INTER:                  -8.372
REMARK INTRA:                  -0.216
REMARK UNBOUND:                -0.216
REMARK SMILES Cc1ccc(=O)n(-c2ccccc2)c1
REMARK SMILES IDX 1 1 2 2 3 3 4 4 5 5 6 6 7 7 14 8 8 9 9 10 13 11 10 12 12 13
REMARK SMILES IDX 11 14
REMARK H PARENT
ROOT
ATOM      1  C   UNL     1     -38.658 157.931   2.958  1.00  0.00    +0.046 C 
ATOM      2  C   UNL     1     -39.627 158.602   2.031  1.00  0.00    -0.034 C 
ATOM      3  C   UNL     1     -41.000 158.691   2.456  1.00  0.00    +0.010 C 
ATOM      4  C   UNL     1     -41.906 159.298   1.685  1.00  0.00    +0.072 C 
ATOM      5  C   UNL     1     -41.531 159.880   0.365  1.00  0.00    +0.255 C 
ATOM      6  O   UNL     1     -42.449 160.368  -0.294  1.00  0.00    -0.269 OA
ATOM      7  N   UNL     1     -40.170 159.775  -0.005  1.00  0.00    -0.284 N 
ATOM      8  C   UNL     1     -39.269 159.132   0.852  1.00  0.00    +0.098 C 
ENDROOT
BRANCH   7   9
ATOM      9  C   UNL     1     -39.722 160.319  -1.271  1.00  0.00    +0.049 A 
ATOM     10  C   UNL     1     -39.307 159.474  -2.317  1.00  0.00    +0.027 A 
ATOM     11  C   UNL     1     -39.661 161.702  -1.504  1.00  0.00    +0.027 A 
ATOM     12  C   UNL     1     -38.858 159.987  -3.539  1.00  0.00    +0.002 A 
ATOM     13  C   UNL     1     -39.210 162.218  -2.725  1.00  0.00    +0.002 A 
ATOM     14  C   UNL     1     -38.808 161.361  -3.742  1.00  0.00    +0.000 A 
ENDBRANCH   7   9
TORSDOF 1
ENDMDL
MODEL 2
REMARK VINA RESULT:    -7.783      1.811      5.504
REMARK INTER + INTRA:          -8.454
REMARK INTER:                  -8.168
REMARK INTRA:                  -0.285
REMARK UNBOUND:                -0.216
REMARK SMILES Cc1ccc(=O)n(-c2ccccc2)c1
REMARK SMILES IDX 1 1 2 2 3 3 4 4 5 5 6 6 7 7 14 8 8 9 9 10 13 11 10 12 12 13
REMARK SMILES IDX 11 14
REMARK H PARENT
ROOT
ATOM      1  C   UNL     1     -38.925 164.631  -3.662  1.00  0.00    +0.046 C 
ATOM      2  C   UNL     1     -38.969 163.145  -3.467  1.00  0.00    -0.034 C 
ATOM      3  C   UNL     1     -38.571 162.316  -4.576  1.00  0.00    +0.010 C 
ATOM      4  C   UNL     1     -38.566 160.987  -4.455  1.00  0.00    +0.072 C 
ATOM      5  C   UNL     1     -38.986 160.324  -3.188  1.00  0.00    +0.255 C 
ATOM      6  O   UNL     1     -39.000 159.093  -3.196  1.00  0.00    -0.269 OA
ATOM      7  N   UNL     1     -39.362 161.180  -2.126  1.00  0.00    -0.284 N 
ATOM      8  C   UNL     1     -39.338 162.566  -2.315  1.00  0.00    +0.098 C 
ENDROOT
BRANCH   7   9
ATOM      9  C   UNL     1     -39.779 160.616  -0.858  1.00  0.00    +0.049 A 
ATOM     10  C   UNL     1     -38.835 160.244   0.116  1.00  0.00    +0.027 A 
ATOM     11  C   UNL     1     -41.132 160.398  -0.552  1.00  0.00    +0.027 A 
ATOM     12  C   UNL     1     -39.225 159.684   1.339  1.00  0.00    +0.002 A 
ATOM     13  C   UNL     1     -41.525 159.837   0.668  1.00  0.00    +0.002 A 
ATOM     14  C   UNL     1     -40.572 159.479   1.613  1.00  0.00    +0.000 A 
ENDBRANCH   7   9
TORSDOF 1
ENDMDL
MODEL 3
REMARK VINA RESULT:    -7.644      1.446      5.246
REMARK INTER + INTRA:          -8.307
REMARK INTER:                  -8.185
REMARK INTRA:                  -0.121
REMARK UNBOUND:                -0.216
REMARK SMILES Cc1ccc(=O)n(-c2ccccc2)c1
REMARK SMILES IDX 1 1 2 2 3 3 4 4 5 5 6 6 7 7 14 8 8 9 9 10 13 11 10 12 12 13
REMARK SMILES IDX 11 14
REMARK H PARENT
ROOT
ATOM      1  C   UNL     1     -39.203 163.149  -3.090  1.00  0.00    +0.046 C 
ATOM      2  C   UNL     1     -39.228 161.711  -2.664  1.00  0.00    -0.034 C 
ATOM      3  C   UNL     1     -38.595 160.750  -3.530  1.00  0.00    +0.010 C 
ATOM      4  C   UNL     1     -38.563 159.458  -3.194  1.00  0.00    +0.072 C 
ATOM      5  C   UNL     1     -39.193 158.972  -1.933  1.00  0.00    +0.255 C 
ATOM      6  O   UNL     1     -39.159 157.757  -1.741  1.00  0.00    -0.269 OA
ATOM      7  N   UNL     1     -39.796 159.954  -1.113  1.00  0.00    -0.284 N 
ATOM      8  C   UNL     1     -39.789 161.293  -1.519  1.00  0.00    +0.098 C 
ENDROOT
BRANCH   7   9
ATOM      9  C   UNL     1     -40.427 159.566   0.133  1.00  0.00    +0.049 A 
ATOM     10  C   UNL     1     -41.787 159.836   0.371  1.00  0.00    +0.027 A 
ATOM     11  C   UNL     1     -39.713 158.927   1.159  1.00  0.00    +0.027 A 
ATOM     12  C   UNL     1     -42.405 159.480   1.576  1.00  0.00    +0.002 A 
ATOM     13  C   UNL     1     -40.328 158.572   2.365  1.00  0.00    +0.002 A 
ATOM     14  C   UNL     1     -41.673 158.849   2.574  1.00  0.00    +0.000 A 
ENDBRANCH   7   9
TORSDOF 1
ENDMDL
MODEL 4
REMARK VINA RESULT:    -7.523      3.267      6.781
REMARK INTER + INTRA:          -8.179
REMARK INTER:                  -8.517
REMARK INTRA:                   0.339
REMARK UNBOUND:                -0.216
REMARK SMILES Cc1ccc(=O)n(-c2ccccc2)c1
REMARK SMILES IDX 1 1 2 2 3 3 4 4 5 5 6 6 7 7 14 8 8 9 9 10 13 11 10 12 12 13
REMARK SMILES IDX 11 14
REMARK H PARENT
ROOT
ATOM      1  C   UNL     1     -38.071 162.937  -8.023  1.00  0.00    +0.046 C 
ATOM      2  C   UNL     1     -38.264 163.312  -6.585  1.00  0.00    -0.034 C 
ATOM      3  C   UNL     1     -38.188 164.710  -6.245  1.00  0.00    +0.010 C 
ATOM      4  C   UNL     1     -38.375 165.109  -4.985  1.00  0.00    +0.072 C 
ATOM      5  C   UNL     1     -38.646 164.127  -3.896  1.00  0.00    +0.255 C 
ATOM      6  O   UNL     1     -38.748 164.589  -2.760  1.00  0.00    -0.269 OA
ATOM      7  N   UNL     1     -38.717 162.767  -4.279  1.00  0.00    -0.284 N 
ATOM      8  C   UNL     1     -38.519 162.416  -5.619  1.00  0.00    +0.098 C 
ENDROOT
BRANCH   7   9
ATOM      9  C   UNL     1     -38.981 161.749  -3.282  1.00  0.00    +0.049 A 
ATOM     10  C   UNL     1     -38.714 160.393  -3.544  1.00  0.00    +0.027 A 
ATOM     11  C   UNL     1     -39.529 162.063  -2.028  1.00  0.00    +0.027 A 
ATOM     12  C   UNL     1     -38.978 159.398  -2.594  1.00  0.00    +0.002 A 
ATOM     13  C   UNL     1     -39.796 161.071  -1.078  1.00  0.00    +0.002 A 
ATOM     14  C   UNL     1     -39.522 159.738  -1.361  1.00  0.00    +0.000 A 
ENDBRANCH   7   9
TORSDOF 1
ENDMDL
MODEL 5
REMARK VINA RESULT:    -7.431      2.586      5.918
REMARK INTER + INTRA:          -8.081
REMARK INTER:                  -8.213
REMARK INTRA:                   0.132
REMARK UNBOUND:                -0.216
REMARK SMILES Cc1ccc(=O)n(-c2ccccc2)c1
REMARK SMILES IDX 1 1 2 2 3 3 4 4 5 5 6 6 7 7 14 8 8 9 9 10 13 11 10 12 12 13
REMARK SMILES IDX 11 14
REMARK H PARENT
ROOT
ATOM      1  C   UNL     1     -38.234 163.485  -6.425  1.00  0.00    +0.046 C 
ATOM      2  C   UNL     1     -38.445 163.386  -4.944  1.00  0.00    -0.034 C 
ATOM      3  C   UNL     1     -38.461 164.614  -4.190  1.00  0.00    +0.010 C 
ATOM      4  C   UNL     1     -38.669 164.593  -2.872  1.00  0.00    +0.072 C 
ATOM      5  C   UNL     1     -38.869 163.309  -2.141  1.00  0.00    +0.255 C 
ATOM      6  O   UNL     1     -38.997 163.392  -0.920  1.00  0.00    -0.269 OA
ATOM      7  N   UNL     1     -38.852 162.131  -2.925  1.00  0.00    -0.284 N 
ATOM      8  C   UNL     1     -38.637 162.222  -4.304  1.00  0.00    +0.098 C 
ENDROOT
BRANCH   7   9
ATOM      9  C   UNL     1     -39.044 160.842  -2.293  1.00  0.00    +0.049 A 
ATOM     10  C   UNL     1     -39.978 160.675  -1.254  1.00  0.00    +0.027 A 
ATOM     11  C   UNL     1     -38.299 159.712  -2.669  1.00  0.00    +0.027 A 
ATOM     12  C   UNL     1     -40.162 159.438  -0.625  1.00  0.00    +0.002 A 
ATOM     13  C   UNL     1     -38.479 158.475  -2.041  1.00  0.00    +0.002 A 
ATOM     14  C   UNL     1     -39.410 158.338  -1.018  1.00  0.00    +0.000 A 
ENDBRANCH   7   9
TORSDOF 1
ENDMDL
MODEL 6
REMARK VINA RESULT:    -7.302      2.538      3.736
REMARK INTER + INTRA:          -7.945
REMARK INTER:                  -8.323
REMARK INTRA:                   0.378
REMARK UNBOUND:                -0.216
REMARK SMILES Cc1ccc(=O)n(-c2ccccc2)c1
REMARK SMILES IDX 1 1 2 2 3 3 4 4 5 5 6 6 7 7 14 8 8 9 9 10 13 11 10 12 12 13
REMARK SMILES IDX 11 14
REMARK H PARENT
ROOT
ATOM      1  C   UNL     1     -39.177 157.807  -2.020  1.00  0.00    +0.046 C 
ATOM      2  C   UNL     1     -39.120 159.279  -1.745  1.00  0.00    -0.034 C 
ATOM      3  C   UNL     1     -39.205 159.704  -0.371  1.00  0.00    +0.010 C 
ATOM      4  C   UNL     1     -39.136 161.000  -0.061  1.00  0.00    +0.072 C 
ATOM      5  C   UNL     1     -38.988 162.041  -1.118  1.00  0.00    +0.255 C 
ATOM      6  O   UNL     1     -38.990 163.210  -0.734  1.00  0.00    -0.269 OA
ATOM      7  N   UNL     1     -38.901 161.575  -2.451  1.00  0.00    -0.284 N 
ATOM      8  C   UNL     1     -38.974 160.201  -2.709  1.00  0.00    +0.098 C 
ENDROOT
BRANCH   7   9
ATOM      9  C   UNL     1     -38.752 162.521  -3.538  1.00  0.00    +0.049 A 
ATOM     10  C   UNL     1     -38.372 162.094  -4.824  1.00  0.00    +0.027 A 
ATOM     11  C   UNL     1     -38.958 163.898  -3.357  1.00  0.00    +0.027 A 
ATOM     12  C   UNL     1     -38.210 163.000  -5.879  1.00  0.00    +0.002 A 
ATOM     13  C   UNL     1     -38.795 164.806  -4.409  1.00  0.00    +0.002 A 
ATOM     14  C   UNL     1     -38.420 164.358  -5.670  1.00  0.00    +0.000 A 
ENDBRANCH   7   9
TORSDOF 1
ENDMDL
MODEL 7
REMARK VINA RESULT:    -7.298      2.120      3.344
REMARK INTER + INTRA:          -7.941
REMARK INTER:                  -7.868
REMARK INTRA:                  -0.073
REMARK UNBOUND:                -0.216
REMARK SMILES Cc1ccc(=O)n(-c2ccccc2)c1
REMARK SMILES IDX 1 1 2 2 3 3 4 4 5 5 6 6 7 7 14 8 8 9 9 10 13 11 10 12 12 13
REMARK SMILES IDX 11 14
REMARK H PARENT
ROOT
ATOM      1  C   UNL     1     -42.417 160.618   0.627  1.00  0.00    +0.046 C 
ATOM      2  C   UNL     1     -41.158 160.282  -0.114  1.00  0.00    -0.034 C 
ATOM      3  C   UNL     1     -40.392 159.155   0.352  1.00  0.00    +0.010 C 
ATOM      4  C   UNL     1     -39.274 158.791  -0.281  1.00  0.00    +0.072 C 
ATOM      5  C   UNL     1     -38.778 159.546  -1.467  1.00  0.00    +0.255 C 
ATOM      6  O   UNL     1     -37.709 159.166  -1.945  1.00  0.00    -0.269 OA
ATOM      7  N   UNL     1     -39.567 160.640  -1.891  1.00  0.00    -0.284 N 
ATOM      8  C   UNL     1     -40.733 160.965  -1.188  1.00  0.00    +0.098 C 
ENDROOT
BRANCH   7   9
ATOM      9  C   UNL     1     -39.158 161.423  -3.039  1.00  0.00    +0.049 A 
ATOM     10  C   UNL     1     -39.017 162.820  -2.950  1.00  0.00    +0.027 A 
ATOM     11  C   UNL     1     -38.903 160.833  -4.288  1.00  0.00    +0.027 A 
ATOM     12  C   UNL     1     -38.637 163.590  -4.056  1.00  0.00    +0.002 A 
ATOM     13  C   UNL     1     -38.525 161.601  -5.395  1.00  0.00    +0.002 A 
ATOM     14  C   UNL     1     -38.392 162.979  -5.280  1.00  0.00    +0.000 A 
ENDBRANCH   7   9
TORSDOF 1
ENDMDL
MODEL 8
REMARK VINA RESULT:    -6.850      4.426      6.356
REMARK INTER + INTRA:          -7.466
REMARK INTER:                  -7.836
REMARK INTRA:                   0.370
REMARK UNBOUND:                -0.216
REMARK SMILES Cc1ccc(=O)n(-c2ccccc2)c1
REMARK SMILES IDX 1 1 2 2 3 3 4 4 5 5 6 6 7 7 14 8 8 9 9 10 13 11 10 12 12 13
REMARK SMILES IDX 11 14
REMARK H PARENT
ROOT
ATOM      1  C   UNL     1     -38.983 159.829  -3.177  1.00  0.00    +0.046 C 
ATOM      2  C   UNL     1     -38.868 161.298  -3.454  1.00  0.00    -0.034 C 
ATOM      3  C   UNL     1     -38.991 162.198  -2.336  1.00  0.00    +0.010 C 
ATOM      4  C   UNL     1     -38.873 163.516  -2.515  1.00  0.00    +0.072 C 
ATOM      5  C   UNL     1     -38.632 164.093  -3.868  1.00  0.00    +0.255 C 
ATOM      6  O   UNL     1     -38.594 165.321  -3.937  1.00  0.00    -0.269 OA
ATOM      7  N   UNL     1     -38.511 163.169  -4.933  1.00  0.00    -0.284 N 
ATOM      8  C   UNL     1     -38.637 161.799  -4.677  1.00  0.00    +0.098 C 
ENDROOT
BRANCH   7   9
ATOM      9  C   UNL     1     -38.271 163.647  -6.280  1.00  0.00    +0.049 A 
ATOM     10  C   UNL     1     -37.836 162.773  -7.293  1.00  0.00    +0.027 A 
ATOM     11  C   UNL     1     -38.440 164.997  -6.629  1.00  0.00    +0.027 A 
ATOM     12  C   UNL     1     -37.586 163.225  -8.594  1.00  0.00    +0.002 A 
ATOM     13  C   UNL     1     -38.189 165.452  -7.929  1.00  0.00    +0.002 A 
ATOM     14  C   UNL     1     -37.761 164.567  -8.911  1.00  0.00    +0.000 A 
ENDBRANCH   7   9
TORSDOF 1
ENDMDL
MODEL 9
REMARK VINA RESULT:    -6.839      3.280      4.961
REMARK INTER + INTRA:          -7.454
REMARK INTER:                  -7.901
REMARK INTRA:                   0.446
REMARK UNBOUND:                -0.216
REMARK SMILES Cc1ccc(=O)n(-c2ccccc2)c1
REMARK SMILES IDX 1 1 2 2 3 3 4 4 5 5 6 6 7 7 14 8 8 9 9 10 13 11 10 12 12 13
REMARK SMILES IDX 11 14
REMARK H PARENT
ROOT
ATOM      1  C   UNL     1     -39.002 158.346  -2.400  1.00  0.00    +0.046 C 
ATOM      2  C   UNL     1     -38.985 159.839  -2.540  1.00  0.00    -0.034 C 
ATOM      3  C   UNL     1     -39.233 160.622  -1.356  1.00  0.00    +0.010 C 
ATOM      4  C   UNL     1     -39.208 161.955  -1.412  1.00  0.00    +0.072 C 
ATOM      5  C   UNL     1     -38.944 162.670  -2.694  1.00  0.00    +0.255 C 
ATOM      6  O   UNL     1     -38.997 163.899  -2.653  1.00  0.00    -0.269 OA
ATOM      7  N   UNL     1     -38.699 161.858  -3.827  1.00  0.00    -0.284 N 
ATOM      8  C   UNL     1     -38.733 160.465  -3.699  1.00  0.00    +0.098 C 
ENDROOT
BRANCH   7   9
ATOM      9  C   UNL     1     -38.430 162.474  -5.110  1.00  0.00    +0.049 A 
ATOM     10  C   UNL     1     -38.507 163.869  -5.275  1.00  0.00    +0.027 A 
ATOM     11  C   UNL     1     -38.102 161.714  -6.244  1.00  0.00    +0.027 A 
ATOM     12  C   UNL     1     -38.264 164.475  -6.514  1.00  0.00    +0.002 A 
ATOM     13  C   UNL     1     -37.860 162.316  -7.484  1.00  0.00    +0.002 A 
ATOM     14  C   UNL     1     -37.942 163.697  -7.619  1.00  0.00    +0.000 A 
ENDBRANCH   7   9
TORSDOF 1
ENDMDL
MODEL 10
REMARK VINA RESULT:    -6.712      1.519      2.602
REMARK INTER + INTRA:          -7.320
REMARK INTER:                  -7.147
REMARK INTRA:                  -0.173
REMARK UNBOUND:                -0.216
REMARK SMILES Cc1ccc(=O)n(-c2ccccc2)c1
REMARK SMILES IDX 1 1 2 2 3 3 4 4 5 5 6 6 7 7 14 8 8 9 9 10 13 11 10 12 12 13
REMARK SMILES IDX 11 14
REMARK H PARENT
ROOT
ATOM      1  C   UNL     1     -42.608 159.226   2.429  1.00  0.00    +0.046 C 
ATOM      2  C   UNL     1     -41.255 159.097   1.797  1.00  0.00    -0.034 C 
ATOM      3  C   UNL     1     -40.263 158.324   2.499  1.00  0.00    +0.010 C 
ATOM      4  C   UNL     1     -39.047 158.152   1.975  1.00  0.00    +0.072 C 
ATOM      5  C   UNL     1     -38.675 158.766   0.669  1.00  0.00    +0.255 C 
ATOM      6  O   UNL     1     -37.514 158.596   0.299  1.00  0.00    -0.269 OA
ATOM      7  N   UNL     1     -39.685 159.510   0.014  1.00  0.00    -0.284 N 
ATOM      8  C   UNL     1     -40.942 159.646   0.614  1.00  0.00    +0.098 C 
ENDROOT
BRANCH   7   9
ATOM      9  C   UNL     1     -39.406 160.136  -1.263  1.00  0.00    +0.049 A 
ATOM     10  C   UNL     1     -39.434 161.536  -1.405  1.00  0.00    +0.027 A 
ATOM     11  C   UNL     1     -39.118 159.382  -2.412  1.00  0.00    +0.027 A 
ATOM     12  C   UNL     1     -39.181 162.152  -2.637  1.00  0.00    +0.002 A 
ATOM     13  C   UNL     1     -38.868 159.996  -3.645  1.00  0.00    +0.002 A 
ATOM     14  C   UNL     1     -38.900 161.380  -3.758  1.00  0.00    +0.000 A 
ENDBRANCH   7   9
TORSDOF 1
ENDMDL
