MODEL 1
REMARK VINA RESULT:   -12.823      0.000      0.000
REMARK INTER + INTRA:         -17.973
REMARK INTER:                 -17.321
REMARK INTRA:                  -0.652
REMARK UNBOUND:                -0.652
REMARK SMILES Cc1ccc(C(=O)Nc2ccc(CN3CCN(C)CC3)c(C(F)(F)F)c2)cc1C#Cc1cnc2cccnn12
REMARK SMILES IDX 9 1 10 2 11 3 12 4 21 5 26 6 8 7 6 8 7 9 5 11 2 12 3 13
REMARK SMILES IDX 28 14 4 15 27 16 29 17 1 18 30 19 31 20 32 21 39 22 33 23
REMARK SMILES IDX 38 24 34 25 37 26 35 27 36 28 22 29 23 30 24 31 25 32 13 33
REMARK SMILES IDX 14 34 15 35 20 36 16 37 19 38 17 39 18 40
REMARK H PARENT 8 10
ROOT
ATOM      1  C   UNL     1     -38.901 161.432  -3.291  1.00  0.00    +0.042 A 
ATOM      2  C   UNL     1     -38.323 160.604  -4.255  1.00  0.00    +0.026 A 
ATOM      3  C   UNL     1     -37.829 161.136  -5.447  1.00  0.00    +0.008 A 
ATOM      4  C   UNL     1     -37.903 162.514  -5.711  1.00  0.00    -0.022 A 
ATOM      5  C   UNL     1     -38.474 163.366  -4.737  1.00  0.00    +0.062 A 
ATOM      6  C   UNL     1     -38.978 162.802  -3.543  1.00  0.00    +0.039 A 
ENDROOT
BRANCH   1   7
ATOM      7  N   UNL     1     -39.387 160.814  -2.119  1.00  0.00    -0.322 N 
ATOM      8  C   UNL     1     -39.341 161.306  -0.828  1.00  0.00    +0.255 C 
ATOM      9  O   UNL     1     -38.802 162.342  -0.456  1.00  0.00    -0.269 OA
ATOM     10  H   UNL     1     -39.749 159.876  -2.239  1.00  0.00    +0.170 HD
BRANCH   8  11
ATOM     11  C   UNL     1     -39.984 160.438   0.198  1.00  0.00    +0.041 A 
ATOM     12  C   UNL     1     -41.270 158.824   2.111  1.00  0.00    -0.035 A 
ATOM     13  C   UNL     1     -42.017 159.621   1.231  1.00  0.00    +0.005 A 
ATOM     14  C   UNL     1     -39.868 158.828   2.011  1.00  0.00    +0.029 A 
ATOM     15  C   UNL     1     -41.379 160.419   0.279  1.00  0.00    +0.014 A 
ATOM     16  C   UNL     1     -39.229 159.628   1.054  1.00  0.00    +0.031 A 
ATOM     17  C   UNL     1     -39.052 158.021   2.870  1.00  0.00    -0.060 C 
ATOM     18  C   UNL     1     -41.985 157.971   3.124  1.00  0.00    +0.045 C 
BRANCH  17  19
ATOM     19  C   UNL     1     -38.352 157.350   3.579  1.00  0.00    -0.040 C 
ATOM     20  C   UNL     1     -37.515 156.565   4.413  1.00  0.00    +0.135 A 
ATOM     21  C   UNL     1     -37.814 155.392   5.067  1.00  0.00    +0.151 A 
ATOM     22  N   UNL     1     -36.204 156.834   4.731  1.00  0.00    -0.205 N 
ATOM     23  N   UNL     1     -36.735 154.925   5.778  1.00  0.00    -0.234 NA
ATOM     24  N   UNL     1     -35.470 157.912   4.308  1.00  0.00    -0.174 NA
ATOM     25  C   UNL     1     -35.779 155.804   5.559  1.00  0.00    +0.154 A 
ATOM     26  C   UNL     1     -34.257 157.899   4.762  1.00  0.00    +0.134 C 
ATOM     27  C   UNL     1     -34.444 155.853   6.021  1.00  0.00    +0.051 C 
ATOM     28  C   UNL     1     -33.659 156.872   5.649  1.00  0.00    +0.026 C 
ENDBRANCH  17  19
ENDBRANCH   8  11
ENDBRANCH   1   7
BRANCH   5  29
ATOM     29  C   UNL     1     -38.602 164.866  -4.933  1.00  0.00    +0.416 C 
ATOM     30  F   UNL     1     -37.390 165.497  -4.958  1.00  0.00    -0.166 F 
ATOM     31  F   UNL     1     -39.192 165.221  -6.112  1.00  0.00    -0.166 F 
ATOM     32  F   UNL     1     -39.302 165.483  -3.942  1.00  0.00    -0.166 F 
ENDBRANCH   5  29
BRANCH   4  33
ATOM     33  C   UNL     1     -37.362 163.034  -7.030  1.00  0.00    +0.120 C 
BRANCH  33  34
ATOM     34  N   UNL     1     -37.981 162.381  -8.184  1.00  0.00    -0.297 NA
ATOM     35  C   UNL     1     -37.091 161.424  -8.875  1.00  0.00    +0.100 C 
ATOM     36  C   UNL     1     -38.529 163.382  -9.121  1.00  0.00    +0.100 C 
ATOM     37  C   UNL     1     -36.481 161.967 -10.187  1.00  0.00    +0.099 C 
ATOM     38  C   UNL     1     -38.738 162.826 -10.546  1.00  0.00    +0.099 C 
ATOM     39  N   UNL     1     -37.498 162.343 -11.188  1.00  0.00    -0.304 NA
ATOM     40  C   UNL     1     -36.959 163.309 -12.140  1.00  0.00    +0.105 C 
ENDBRANCH  33  34
ENDBRANCH   4  33
TORSDOF 6
ENDMDL
MODEL 2
REMARK VINA RESULT:   -12.299      5.149     13.325
REMARK INTER + INTRA:         -17.264
REMARK INTER:                 -16.826
REMARK INTRA:                  -0.439
REMARK UNBOUND:                -0.652
REMARK SMILES Cc1ccc(C(=O)Nc2ccc(CN3CCN(C)CC3)c(C(F)(F)F)c2)cc1C#Cc1cnc2cccnn12
REMARK SMILES IDX 9 1 10 2 11 3 12 4 21 5 26 6 8 7 6 8 7 9 5 11 2 12 3 13
REMARK SMILES IDX 28 14 4 15 27 16 29 17 1 18 30 19 31 20 32 21 39 22 33 23
REMARK SMILES IDX 38 24 34 25 37 26 35 27 36 28 22 29 23 30 24 31 25 32 13 33
REMARK SMILES IDX 14 34 15 35 20 36 16 37 19 38 17 39 18 40
REMARK H PARENT 8 10
ROOT
ATOM      1  C   UNL     1     -37.487 156.005   4.356  1.00  0.00    +0.042 A 
ATOM      2  C   UNL     1     -37.856 154.659   4.393  1.00  0.00    +0.026 A 
ATOM      3  C   UNL     1     -37.087 153.729   5.096  1.00  0.00    +0.008 A 
ATOM      4  C   UNL     1     -35.923 154.120   5.777  1.00  0.00    -0.022 A 
ATOM      5  C   UNL     1     -35.545 155.482   5.759  1.00  0.00    +0.062 A 
ATOM      6  C   UNL     1     -36.333 156.403   5.032  1.00  0.00    +0.039 A 
ENDROOT
BRANCH   1   7
ATOM      7  N   UNL     1     -38.311 156.878   3.614  1.00  0.00    -0.322 N 
ATOM      8  C   UNL     1     -37.910 157.897   2.770  1.00  0.00    +0.255 C 
ATOM      9  O   UNL     1     -36.763 158.275   2.568  1.00  0.00    -0.269 OA
ATOM     10  H   UNL     1     -39.305 156.782   3.777  1.00  0.00    +0.170 HD
BRANCH   8  11
ATOM     11  C   UNL     1     -39.021 158.619   2.087  1.00  0.00    +0.041 A 
ATOM     12  C   UNL     1     -41.171 159.940   0.842  1.00  0.00    -0.035 A 
ATOM     13  C   UNL     1     -41.402 159.001   1.859  1.00  0.00    +0.005 A 
ATOM     14  C   UNL     1     -39.847 160.226   0.466  1.00  0.00    +0.029 A 
ATOM     15  C   UNL     1     -40.335 158.348   2.479  1.00  0.00    +0.014 A 
ATOM     16  C   UNL     1     -38.777 159.571   1.091  1.00  0.00    +0.031 A 
ATOM     17  C   UNL     1     -39.548 161.189  -0.552  1.00  0.00    -0.060 C 
ATOM     18  C   UNL     1     -42.341 160.631   0.195  1.00  0.00    +0.045 C 
BRANCH  17  19
ATOM     19  C   UNL     1     -39.277 161.993  -1.402  1.00  0.00    -0.040 C 
ATOM     20  C   UNL     1     -38.955 162.933  -2.415  1.00  0.00    +0.135 A 
ATOM     21  C   UNL     1     -38.796 164.296  -2.301  1.00  0.00    +0.151 A 
ATOM     22  N   UNL     1     -38.728 162.651  -3.741  1.00  0.00    -0.205 N 
ATOM     23  N   UNL     1     -38.479 164.866  -3.509  1.00  0.00    -0.234 NA
ATOM     24  N   UNL     1     -38.780 161.414  -4.330  1.00  0.00    -0.174 NA
ATOM     25  C   UNL     1     -38.440 163.861  -4.359  1.00  0.00    +0.154 A 
ATOM     26  C   UNL     1     -38.514 161.452  -5.597  1.00  0.00    +0.134 C 
ATOM     27  C   UNL     1     -38.161 163.831  -5.744  1.00  0.00    +0.051 C 
ATOM     28  C   UNL     1     -38.186 162.660  -6.393  1.00  0.00    +0.026 C 
ENDBRANCH  17  19
ENDBRANCH   8  11
ENDBRANCH   1   7
BRANCH   5  29
ATOM     29  C   UNL     1     -34.302 155.998   6.462  1.00  0.00    +0.416 C 
ATOM     30  F   UNL     1     -33.149 155.516   5.910  1.00  0.00    -0.166 F 
ATOM     31  F   UNL     1     -34.161 157.355   6.409  1.00  0.00    -0.166 F 
ATOM     32  F   UNL     1     -34.239 155.648   7.776  1.00  0.00    -0.166 F 
ENDBRANCH   5  29
BRANCH   4  33
ATOM     33  C   UNL     1     -35.119 153.062   6.512  1.00  0.00    +0.120 C 
BRANCH  33  34
ATOM     34  N   UNL     1     -35.933 151.909   6.898  1.00  0.00    -0.297 NA
ATOM     35  C   UNL     1     -35.644 151.404   8.257  1.00  0.00    +0.100 C 
ATOM     36  C   UNL     1     -35.831 150.835   5.890  1.00  0.00    +0.100 C 
ATOM     37  C   UNL     1     -34.779 150.124   8.282  1.00  0.00    +0.099 C 
ATOM     38  C   UNL     1     -36.232 149.449   6.440  1.00  0.00    +0.099 C 
ATOM     39  N   UNL     1     -35.401 148.990   7.571  1.00  0.00    -0.304 NA
ATOM     40  C   UNL     1     -34.391 148.022   7.153  1.00  0.00    +0.105 C 
ENDBRANCH  33  34
ENDBRANCH   4  33
TORSDOF 6
ENDMDL
MODEL 3
REMARK VINA RESULT:   -12.231      5.304     13.521
REMARK INTER + INTRA:         -17.173
REMARK INTER:                 -16.542
REMARK INTRA:                  -0.631
REMARK UNBOUND:                -0.652
REMARK SMILES Cc1ccc(C(=O)Nc2ccc(CN3CCN(C)CC3)c(C(F)(F)F)c2)cc1C#Cc1cnc2cccnn12
REMARK SMILES IDX 9 1 10 2 11 3 12 4 21 5 26 6 8 7 6 8 7 9 5 11 2 12 3 13
REMARK SMILES IDX 28 14 4 15 27 16 29 17 1 18 30 19 31 20 32 21 39 22 33 23
REMARK SMILES IDX 38 24 34 25 37 26 35 27 36 28 22 29 23 30 24 31 25 32 13 33
REMARK SMILES IDX 14 34 15 35 20 36 16 37 19 38 17 39 18 40
REMARK H PARENT 8 10
ROOT
ATOM      1  C   UNL     1     -37.428 155.663   4.471  1.00  0.00    +0.042 A 
ATOM      2  C   UNL     1     -37.694 154.294   4.401  1.00  0.00    +0.026 A 
ATOM      3  C   UNL     1     -36.916 153.380   5.114  1.00  0.00    +0.008 A 
ATOM      4  C   UNL     1     -35.845 153.810   5.914  1.00  0.00    -0.022 A 
ATOM      5  C   UNL     1     -35.572 155.194   6.005  1.00  0.00    +0.062 A 
ATOM      6  C   UNL     1     -36.367 156.100   5.265  1.00  0.00    +0.039 A 
ENDROOT
BRANCH   1   7
ATOM      7  N   UNL     1     -38.253 156.519   3.711  1.00  0.00    -0.322 N 
ATOM      8  C   UNL     1     -37.861 157.601   2.944  1.00  0.00    +0.255 C 
ATOM      9  O   UNL     1     -36.729 158.058   2.842  1.00  0.00    -0.269 OA
ATOM     10  H   UNL     1     -39.247 156.355   3.797  1.00  0.00    +0.170 HD
BRANCH   8  11
ATOM     11  C   UNL     1     -38.966 158.285   2.215  1.00  0.00    +0.041 A 
ATOM     12  C   UNL     1     -41.103 159.560   0.900  1.00  0.00    -0.035 A 
ATOM     13  C   UNL     1     -41.289 158.972   2.160  1.00  0.00    +0.005 A 
ATOM     14  C   UNL     1     -39.827 159.520   0.311  1.00  0.00    +0.029 A 
ATOM     15  C   UNL     1     -40.228 158.343   2.815  1.00  0.00    +0.014 A 
ATOM     16  C   UNL     1     -38.762 158.889   0.970  1.00  0.00    +0.031 A 
ATOM     17  C   UNL     1     -39.571 160.119  -0.966  1.00  0.00    -0.060 C 
ATOM     18  C   UNL     1     -42.264 160.235   0.221  1.00  0.00    +0.045 C 
BRANCH  17  19
ATOM     19  C   UNL     1     -39.338 160.617  -2.033  1.00  0.00    -0.040 C 
ATOM     20  C   UNL     1     -39.065 161.217  -3.290  1.00  0.00    +0.135 A 
ATOM     21  C   UNL     1     -38.945 160.613  -4.521  1.00  0.00    +0.151 A 
ATOM     22  N   UNL     1     -38.864 162.558  -3.522  1.00  0.00    -0.205 N 
ATOM     23  N   UNL     1     -38.680 161.532  -5.507  1.00  0.00    -0.234 NA
ATOM     24  N   UNL     1     -38.885 163.558  -2.584  1.00  0.00    -0.174 NA
ATOM     25  C   UNL     1     -38.639 162.693  -4.886  1.00  0.00    +0.154 A 
ATOM     26  C   UNL     1     -38.671 164.728  -3.097  1.00  0.00    +0.134 C 
ATOM     27  C   UNL     1     -38.411 163.998  -5.378  1.00  0.00    +0.051 C 
ATOM     28  C   UNL     1     -38.419 165.031  -4.527  1.00  0.00    +0.026 C 
ENDBRANCH  17  19
ENDBRANCH   8  11
ENDBRANCH   1   7
BRANCH   5  29
ATOM     29  C   UNL     1     -34.435 155.753   6.839  1.00  0.00    +0.416 C 
ATOM     30  F   UNL     1     -34.405 157.120   6.837  1.00  0.00    -0.166 F 
ATOM     31  F   UNL     1     -34.503 155.420   8.161  1.00  0.00    -0.166 F 
ATOM     32  F   UNL     1     -33.203 155.372   6.402  1.00  0.00    -0.166 F 
ENDBRANCH   5  29
BRANCH   4  33
ATOM     33  C   UNL     1     -35.025 152.769   6.654  1.00  0.00    +0.120 C 
BRANCH  33  34
ATOM     34  N   UNL     1     -35.821 151.604   7.045  1.00  0.00    -0.297 NA
ATOM     35  C   UNL     1     -35.738 151.283   8.485  1.00  0.00    +0.100 C 
ATOM     36  C   UNL     1     -35.481 150.435   6.210  1.00  0.00    +0.100 C 
ATOM     37  C   UNL     1     -34.813 150.089   8.811  1.00  0.00    +0.099 C 
ATOM     38  C   UNL     1     -35.886 149.093   6.857  1.00  0.00    +0.099 C 
ATOM     39  N   UNL     1     -35.233 148.834   8.157  1.00  0.00    -0.304 NA
ATOM     40  C   UNL     1     -34.110 147.910   8.034  1.00  0.00    +0.105 C 
ENDBRANCH  33  34
ENDBRANCH   4  33
TORSDOF 6
ENDMDL
MODEL 4
REMARK VINA RESULT:   -11.376      3.271     12.445
REMARK INTER + INTRA:         -16.018
REMARK INTER:                 -15.107
REMARK INTRA:                  -0.911
REMARK UNBOUND:                -0.652
REMARK SMILES Cc1ccc(C(=O)Nc2ccc(CN3CCN(C)CC3)c(C(F)(F)F)c2)cc1C#Cc1cnc2cccnn12
REMARK SMILES IDX 9 1 10 2 11 3 12 4 21 5 26 6 8 7 6 8 7 9 5 11 2 12 3 13
REMARK SMILES IDX 28 14 4 15 27 16 29 17 1 18 30 19 31 20 32 21 39 22 33 23
REMARK SMILES IDX 38 24 34 25 37 26 35 27 36 28 22 29 23 30 24 31 25 32 13 33
REMARK SMILES IDX 14 34 15 35 20 36 16 37 19 38 17 39 18 40
REMARK H PARENT 8 10
ROOT
ATOM      1  C   UNL     1     -38.989 159.990  -0.218  1.00  0.00    +0.042 A 
ATOM      2  C   UNL     1     -37.850 159.334   0.253  1.00  0.00    +0.026 A 
ATOM      3  C   UNL     1     -37.905 158.548   1.405  1.00  0.00    +0.008 A 
ATOM      4  C   UNL     1     -39.104 158.399   2.122  1.00  0.00    -0.022 A 
ATOM      5  C   UNL     1     -40.269 159.046   1.649  1.00  0.00    +0.062 A 
ATOM      6  C   UNL     1     -40.185 159.846   0.486  1.00  0.00    +0.039 A 
ENDROOT
BRANCH   1   7
ATOM      7  N   UNL     1     -38.846 160.774  -1.383  1.00  0.00    -0.322 N 
ATOM      8  C   UNL     1     -38.909 160.347  -2.697  1.00  0.00    +0.255 C 
ATOM      9  O   UNL     1     -39.031 159.193  -3.089  1.00  0.00    -0.269 OA
ATOM     10  H   UNL     1     -38.604 161.744  -1.228  1.00  0.00    +0.170 HD
BRANCH   8  11
ATOM     11  C   UNL     1     -38.766 161.426  -3.714  1.00  0.00    +0.041 A 
ATOM     12  C   UNL     1     -38.518 163.518  -5.580  1.00  0.00    -0.035 A 
ATOM     13  C   UNL     1     -38.909 163.783  -4.259  1.00  0.00    +0.005 A 
ATOM     14  C   UNL     1     -38.234 162.193  -5.955  1.00  0.00    +0.029 A 
ATOM     15  C   UNL     1     -39.028 162.745  -3.332  1.00  0.00    +0.014 A 
ATOM     16  C   UNL     1     -38.352 161.153  -5.023  1.00  0.00    +0.031 A 
ATOM     17  C   UNL     1     -37.813 161.864  -7.285  1.00  0.00    -0.060 C 
ATOM     18  C   UNL     1     -38.394 164.657  -6.556  1.00  0.00    +0.045 C 
BRANCH  17  19
ATOM     19  C   UNL     1     -37.457 161.569  -8.393  1.00  0.00    -0.040 C 
ATOM     20  C   UNL     1     -37.034 161.207  -9.698  1.00  0.00    +0.135 A 
ATOM     21  C   UNL     1     -36.821 162.023 -10.787  1.00  0.00    +0.151 A 
ATOM     22  N   UNL     1     -36.744 159.936 -10.135  1.00  0.00    -0.205 N 
ATOM     23  N   UNL     1     -36.408 161.301 -11.880  1.00  0.00    -0.234 NA
ATOM     24  N   UNL     1     -36.818 158.785  -9.393  1.00  0.00    -0.174 NA
ATOM     25  C   UNL     1     -36.366 160.052 -11.466  1.00  0.00    +0.154 A 
ATOM     26  C   UNL     1     -36.477 157.733 -10.068  1.00  0.00    +0.134 C 
ATOM     27  C   UNL     1     -36.009 158.864 -12.143  1.00  0.00    +0.051 C 
ATOM     28  C   UNL     1     -36.049 157.698 -11.488  1.00  0.00    +0.026 C 
ENDBRANCH  17  19
ENDBRANCH   8  11
ENDBRANCH   1   7
BRANCH   5  29
ATOM     29  C   UNL     1     -41.607 158.948   2.358  1.00  0.00    +0.416 C 
ATOM     30  F   UNL     1     -41.615 159.602   3.558  1.00  0.00    -0.166 F 
ATOM     31  F   UNL     1     -42.643 159.504   1.664  1.00  0.00    -0.166 F 
ATOM     32  F   UNL     1     -41.973 157.669   2.650  1.00  0.00    -0.166 F 
ENDBRANCH   5  29
BRANCH   4  33
ATOM     33  C   UNL     1     -39.101 157.544   3.377  1.00  0.00    +0.120 C 
BRANCH  33  34
ATOM     34  N   UNL     1     -37.766 157.047   3.711  1.00  0.00    -0.297 NA
ATOM     35  C   UNL     1     -37.709 155.583   3.911  1.00  0.00    +0.100 C 
ATOM     36  C   UNL     1     -37.212 157.773   4.871  1.00  0.00    +0.100 C 
ATOM     37  C   UNL     1     -37.655 155.152   5.393  1.00  0.00    +0.099 C 
ATOM     38  C   UNL     1     -36.074 157.004   5.577  1.00  0.00    +0.099 C 
ATOM     39  N   UNL     1     -36.481 155.688   6.111  1.00  0.00    -0.304 NA
ATOM     40  C   UNL     1     -36.726 155.730   7.549  1.00  0.00    +0.105 C 
ENDBRANCH  33  34
ENDBRANCH   4  33
TORSDOF 6
ENDMDL
MODEL 5
REMARK VINA RESULT:   -11.373      1.910      2.343
REMARK INTER + INTRA:         -16.013
REMARK INTER:                 -15.990
REMARK INTRA:                  -0.024
REMARK UNBOUND:                -0.652
REMARK SMILES Cc1ccc(C(=O)Nc2ccc(CN3CCN(C)CC3)c(C(F)(F)F)c2)cc1C#Cc1cnc2cccnn12
REMARK SMILES IDX 9 1 10 2 11 3 12 4 21 5 26 6 8 7 6 8 7 9 5 11 2 12 3 13
REMARK SMILES IDX 28 14 4 15 27 16 29 17 1 18 30 19 31 20 32 21 39 22 33 23
REMARK SMILES IDX 38 24 34 25 37 26 35 27 36 28 22 29 23 30 24 31 25 32 13 33
REMARK SMILES IDX 14 34 15 35 20 36 16 37 19 38 17 39 18 40
REMARK H PARENT 8 10
ROOT
ATOM      1  C   UNL     1     -38.665 162.212  -3.627  1.00  0.00    +0.042 A 
ATOM      2  C   UNL     1     -38.780 163.603  -3.634  1.00  0.00    +0.026 A 
ATOM      3  C   UNL     1     -38.275 164.355  -4.697  1.00  0.00    +0.008 A 
ATOM      4  C   UNL     1     -37.635 163.734  -5.782  1.00  0.00    -0.022 A 
ATOM      5  C   UNL     1     -37.523 162.324  -5.795  1.00  0.00    +0.062 A 
ATOM      6  C   UNL     1     -38.033 161.586  -4.702  1.00  0.00    +0.039 A 
ENDROOT
BRANCH   1   7
ATOM      7  N   UNL     1     -39.192 161.528  -2.511  1.00  0.00    -0.322 N 
ATOM      8  C   UNL     1     -38.703 160.374  -1.924  1.00  0.00    +0.255 C 
ATOM      9  O   UNL     1     -37.761 159.695  -2.314  1.00  0.00    -0.269 OA
ATOM     10  H   UNL     1     -40.062 161.892  -2.147  1.00  0.00    +0.170 HD
BRANCH   8  11
ATOM     11  C   UNL     1     -39.453 159.916  -0.722  1.00  0.00    +0.041 A 
ATOM     12  C   UNL     1     -40.938 159.082   1.519  1.00  0.00    -0.035 A 
ATOM     13  C   UNL     1     -41.562 159.762   0.462  1.00  0.00    +0.005 A 
ATOM     14  C   UNL     1     -39.562 158.806   1.434  1.00  0.00    +0.029 A 
ATOM     15  C   UNL     1     -40.826 160.173  -0.652  1.00  0.00    +0.014 A 
ATOM     16  C   UNL     1     -38.825 159.217   0.315  1.00  0.00    +0.031 A 
ATOM     17  C   UNL     1     -38.874 158.099   2.473  1.00  0.00    -0.060 C 
ATOM     18  C   UNL     1     -41.758 158.648   2.704  1.00  0.00    +0.045 C 
BRANCH  17  19
ATOM     19  C   UNL     1     -38.281 157.506   3.333  1.00  0.00    -0.040 C 
ATOM     20  C   UNL     1     -37.568 156.812   4.344  1.00  0.00    +0.135 A 
ATOM     21  C   UNL     1     -38.001 155.777   5.142  1.00  0.00    +0.151 A 
ATOM     22  N   UNL     1     -36.268 157.046   4.728  1.00  0.00    -0.205 N 
ATOM     23  N   UNL     1     -37.016 155.362   6.004  1.00  0.00    -0.234 NA
ATOM     24  N   UNL     1     -35.426 157.996   4.209  1.00  0.00    -0.174 NA
ATOM     25  C   UNL     1     -35.983 156.134   5.736  1.00  0.00    +0.154 A 
ATOM     26  C   UNL     1     -34.254 157.979   4.762  1.00  0.00    +0.134 C 
ATOM     27  C   UNL     1     -34.686 156.173   6.297  1.00  0.00    +0.051 C 
ATOM     28  C   UNL     1     -33.802 157.069   5.842  1.00  0.00    +0.026 C 
ENDBRANCH  17  19
ENDBRANCH   8  11
ENDBRANCH   1   7
BRANCH   5  29
ATOM     29  C   UNL     1     -36.845 161.565  -6.921  1.00  0.00    +0.416 C 
ATOM     30  F   UNL     1     -35.929 160.659  -6.465  1.00  0.00    -0.166 F 
ATOM     31  F   UNL     1     -37.702 160.824  -7.682  1.00  0.00    -0.166 F 
ATOM     32  F   UNL     1     -36.155 162.368  -7.776  1.00  0.00    -0.166 F 
ENDBRANCH   5  29
BRANCH   4  33
ATOM     33  C   UNL     1     -37.092 164.603  -6.902  1.00  0.00    +0.120 C 
BRANCH  33  34
ATOM     34  N   UNL     1     -38.123 164.974  -7.872  1.00  0.00    -0.297 NA
ATOM     35  C   UNL     1     -38.536 163.863  -8.755  1.00  0.00    +0.100 C 
ATOM     36  C   UNL     1     -37.707 166.158  -8.651  1.00  0.00    +0.100 C 
ATOM     37  C   UNL     1     -37.934 163.931 -10.176  1.00  0.00    +0.099 C 
ATOM     38  C   UNL     1     -38.475 166.304  -9.982  1.00  0.00    +0.099 C 
ATOM     39  N   UNL     1     -38.300 165.163 -10.903  1.00  0.00    -0.304 NA
ATOM     40  C   UNL     1     -37.334 165.451 -11.958  1.00  0.00    +0.105 C 
ENDBRANCH  33  34
ENDBRANCH   4  33
TORSDOF 6
ENDMDL
MODEL 6
REMARK VINA RESULT:   -10.535      4.661      8.161
REMARK INTER + INTRA:         -14.882
REMARK INTER:                 -14.339
REMARK INTRA:                  -0.543
REMARK UNBOUND:                -0.652
REMARK SMILES Cc1ccc(C(=O)Nc2ccc(CN3CCN(C)CC3)c(C(F)(F)F)c2)cc1C#Cc1cnc2cccnn12
REMARK SMILES IDX 9 1 10 2 11 3 12 4 21 5 26 6 8 7 6 8 7 9 5 11 2 12 3 13
REMARK SMILES IDX 28 14 4 15 27 16 29 17 1 18 30 19 31 20 32 21 39 22 33 23
REMARK SMILES IDX 38 24 34 25 37 26 35 27 36 28 22 29 23 30 24 31 25 32 13 33
REMARK SMILES IDX 14 34 15 35 20 36 16 37 19 38 17 39 18 40
REMARK H PARENT 8 10
ROOT
ATOM      1  C   UNL     1     -38.712 157.758   2.563  1.00  0.00    +0.042 A 
ATOM      2  C   UNL     1     -37.810 158.358   1.681  1.00  0.00    +0.026 A 
ATOM      3  C   UNL     1     -38.247 159.296   0.745  1.00  0.00    +0.008 A 
ATOM      4  C   UNL     1     -39.602 159.657   0.659  1.00  0.00    -0.022 A 
ATOM      5  C   UNL     1     -40.524 159.067   1.554  1.00  0.00    +0.062 A 
ATOM      6  C   UNL     1     -40.059 158.111   2.487  1.00  0.00    +0.039 A 
ENDROOT
BRANCH   1   7
ATOM      7  N   UNL     1     -38.191 156.811   3.471  1.00  0.00    -0.322 N 
ATOM      8  C   UNL     1     -37.456 157.061   4.615  1.00  0.00    +0.255 C 
ATOM      9  O   UNL     1     -37.060 158.151   5.011  1.00  0.00    -0.269 OA
ATOM     10  H   UNL     1     -38.319 155.842   3.211  1.00  0.00    +0.170 HD
BRANCH   8  11
ATOM     11  C   UNL     1     -37.086 155.849   5.399  1.00  0.00    +0.041 A 
ATOM     12  C   UNL     1     -36.326 153.602   6.914  1.00  0.00    -0.035 A 
ATOM     13  C   UNL     1     -35.635 154.817   7.042  1.00  0.00    +0.005 A 
ATOM     14  C   UNL     1     -37.416 153.528   6.030  1.00  0.00    +0.029 A 
ATOM     15  C   UNL     1     -36.015 155.933   6.294  1.00  0.00    +0.014 A 
ATOM     16  C   UNL     1     -37.797 154.650   5.280  1.00  0.00    +0.031 A 
ATOM     17  C   UNL     1     -38.172 152.321   5.869  1.00  0.00    -0.060 C 
ATOM     18  C   UNL     1     -35.897 152.417   7.737  1.00  0.00    +0.045 C 
BRANCH  17  19
ATOM     19  C   UNL     1     -38.817 151.319   5.723  1.00  0.00    -0.040 C 
ATOM     20  C   UNL     1     -39.578 150.136   5.536  1.00  0.00    +0.135 A 
ATOM     21  C   UNL     1     -40.365 149.470   6.448  1.00  0.00    +0.151 A 
ATOM     22  N   UNL     1     -39.679 149.411   4.372  1.00  0.00    -0.205 N 
ATOM     23  N   UNL     1     -40.951 148.360   5.889  1.00  0.00    -0.234 NA
ATOM     24  N   UNL     1     -39.059 149.694   3.182  1.00  0.00    -0.174 NA
ATOM     25  C   UNL     1     -40.528 148.346   4.642  1.00  0.00    +0.154 A 
ATOM     26  C   UNL     1     -39.347 148.837   2.254  1.00  0.00    +0.134 C 
ATOM     27  C   UNL     1     -40.797 147.448   3.584  1.00  0.00    +0.051 C 
ATOM     28  C   UNL     1     -40.234 147.656   2.388  1.00  0.00    +0.026 C 
ENDBRANCH  17  19
ENDBRANCH   8  11
ENDBRANCH   1   7
BRANCH   5  29
ATOM     29  C   UNL     1     -42.007 159.390   1.536  1.00  0.00    +0.416 C 
ATOM     30  F   UNL     1     -42.752 158.475   2.226  1.00  0.00    -0.166 F 
ATOM     31  F   UNL     1     -42.320 160.585   2.116  1.00  0.00    -0.166 F 
ATOM     32  F   UNL     1     -42.541 159.410   0.284  1.00  0.00    -0.166 F 
ENDBRANCH   5  29
BRANCH   4  33
ATOM     33  C   UNL     1     -40.021 160.671  -0.389  1.00  0.00    +0.120 C 
BRANCH  33  34
ATOM     34  N   UNL     1     -38.913 161.066  -1.260  1.00  0.00    -0.297 NA
ATOM     35  C   UNL     1     -39.062 162.419  -1.836  1.00  0.00    +0.100 C 
ATOM     36  C   UNL     1     -38.687 160.053  -2.310  1.00  0.00    +0.100 C 
ATOM     37  C   UNL     1     -39.519 162.428  -3.312  1.00  0.00    +0.099 C 
ATOM     38  C   UNL     1     -37.908 160.605  -3.524  1.00  0.00    +0.099 C 
ATOM     39  N   UNL     1     -38.586 161.723  -4.212  1.00  0.00    -0.304 NA
ATOM     40  C   UNL     1     -39.266 161.287  -5.428  1.00  0.00    +0.105 C 
ENDBRANCH  33  34
ENDBRANCH   4  33
TORSDOF 6
ENDMDL
MODEL 7
REMARK VINA RESULT:   -10.229      7.838     13.872
REMARK INTER + INTRA:         -14.469
REMARK INTER:                 -14.043
REMARK INTRA:                  -0.426
REMARK UNBOUND:                -0.652
REMARK SMILES Cc1ccc(C(=O)Nc2ccc(CN3CCN(C)CC3)c(C(F)(F)F)c2)cc1C#Cc1cnc2cccnn12
REMARK SMILES IDX 9 1 10 2 11 3 12 4 21 5 26 6 8 7 6 8 7 9 5 11 2 12 3 13
REMARK SMILES IDX 28 14 4 15 27 16 29 17 1 18 30 19 31 20 32 21 39 22 33 23
REMARK SMILES IDX 38 24 34 25 37 26 35 27 36 28 22 29 23 30 24 31 25 32 13 33
REMARK SMILES IDX 14 34 15 35 20 36 16 37 19 38 17 39 18 40
REMARK H PARENT 8 10
ROOT
ATOM      1  C   UNL     1     -37.957 151.049   4.885  1.00  0.00    +0.042 A 
ATOM      2  C   UNL     1     -36.856 150.209   5.065  1.00  0.00    +0.026 A 
ATOM      3  C   UNL     1     -36.985 148.826   4.927  1.00  0.00    +0.008 A 
ATOM      4  C   UNL     1     -38.222 148.243   4.608  1.00  0.00    -0.022 A 
ATOM      5  C   UNL     1     -39.342 149.082   4.409  1.00  0.00    +0.062 A 
ATOM      6  C   UNL     1     -39.190 150.479   4.566  1.00  0.00    +0.039 A 
ENDROOT
BRANCH   1   7
ATOM      7  N   UNL     1     -37.745 152.434   5.055  1.00  0.00    -0.322 N 
ATOM      8  C   UNL     1     -37.151 153.068   6.131  1.00  0.00    +0.255 C 
ATOM      9  O   UNL     1     -36.763 152.545   7.169  1.00  0.00    -0.269 OA
ATOM     10  H   UNL     1     -38.135 153.026   4.333  1.00  0.00    +0.170 HD
BRANCH   8  11
ATOM     11  C   UNL     1     -37.027 154.546   5.997  1.00  0.00    +0.041 A 
ATOM     12  C   UNL     1     -36.756 157.342   5.817  1.00  0.00    -0.035 A 
ATOM     13  C   UNL     1     -36.249 156.645   6.925  1.00  0.00    +0.005 A 
ATOM     14  C   UNL     1     -37.386 156.620   4.788  1.00  0.00    +0.029 A 
ATOM     15  C   UNL     1     -36.380 155.258   7.012  1.00  0.00    +0.014 A 
ATOM     16  C   UNL     1     -37.515 155.227   4.877  1.00  0.00    +0.031 A 
ATOM     17  C   UNL     1     -37.906 157.274   3.624  1.00  0.00    -0.060 C 
ATOM     18  C   UNL     1     -36.596 158.837   5.748  1.00  0.00    +0.045 C 
BRANCH  17  19
ATOM     19  C   UNL     1     -38.347 157.804   2.641  1.00  0.00    -0.040 C 
ATOM     20  C   UNL     1     -38.881 158.430   1.485  1.00  0.00    +0.135 A 
ATOM     21  C   UNL     1     -38.289 158.607   0.254  1.00  0.00    +0.151 A 
ATOM     22  N   UNL     1     -40.130 158.993   1.370  1.00  0.00    -0.205 N 
ATOM     23  N   UNL     1     -39.128 159.257  -0.617  1.00  0.00    -0.234 NA
ATOM     24  N   UNL     1     -41.085 159.059   2.352  1.00  0.00    -0.174 NA
ATOM     25  C   UNL     1     -40.228 159.477   0.071  1.00  0.00    +0.154 A 
ATOM     26  C   UNL     1     -42.172 159.642   1.953  1.00  0.00    +0.134 C 
ATOM     27  C   UNL     1     -41.441 160.103  -0.296  1.00  0.00    +0.051 C 
ATOM     28  C   UNL     1     -42.426 160.204   0.604  1.00  0.00    +0.026 C 
ENDBRANCH  17  19
ENDBRANCH   8  11
ENDBRANCH   1   7
BRANCH   5  29
ATOM     29  C   UNL     1     -40.720 148.545   4.066  1.00  0.00    +0.416 C 
ATOM     30  F   UNL     1     -41.636 149.539   3.868  1.00  0.00    -0.166 F 
ATOM     31  F   UNL     1     -40.757 147.816   2.913  1.00  0.00    -0.166 F 
ATOM     32  F   UNL     1     -41.254 147.761   5.043  1.00  0.00    -0.166 F 
ENDBRANCH   5  29
BRANCH   4  33
ATOM     33  C   UNL     1     -38.305 146.732   4.485  1.00  0.00    +0.120 C 
BRANCH  33  34
ATOM     34  N   UNL     1     -37.696 146.238   3.250  1.00  0.00    -0.297 NA
ATOM     35  C   UNL     1     -36.426 145.512   3.461  1.00  0.00    +0.100 C 
ATOM     36  C   UNL     1     -37.537 147.332   2.270  1.00  0.00    +0.100 C 
ATOM     37  C   UNL     1     -35.165 146.337   3.120  1.00  0.00    +0.099 C 
ATOM     38  C   UNL     1     -36.486 147.021   1.183  1.00  0.00    +0.099 C 
ATOM     39  N   UNL     1     -35.128 146.784   1.714  1.00  0.00    -0.304 NA
ATOM     40  C   UNL     1     -34.267 147.953   1.562  1.00  0.00    +0.105 C 
ENDBRANCH  33  34
ENDBRANCH   4  33
TORSDOF 6
ENDMDL
MODEL 8
REMARK VINA RESULT:   -10.147      7.889     14.974
REMARK INTER + INTRA:         -14.358
REMARK INTER:                 -13.436
REMARK INTRA:                  -0.922
REMARK UNBOUND:                -0.652
REMARK SMILES Cc1ccc(C(=O)Nc2ccc(CN3CCN(C)CC3)c(C(F)(F)F)c2)cc1C#Cc1cnc2cccnn12
REMARK SMILES IDX 9 1 10 2 11 3 12 4 21 5 26 6 8 7 6 8 7 9 5 11 2 12 3 13
REMARK SMILES IDX 28 14 4 15 27 16 29 17 1 18 30 19 31 20 32 21 39 22 33 23
REMARK SMILES IDX 38 24 34 25 37 26 35 27 36 28 22 29 23 30 24 31 25 32 13 33
REMARK SMILES IDX 14 34 15 35 20 36 16 37 19 38 17 39 18 40
REMARK H PARENT 8 10
ROOT
ATOM      1  C   UNL     1     -38.422 151.012   5.189  1.00  0.00    +0.042 A 
ATOM      2  C   UNL     1     -38.140 150.179   6.273  1.00  0.00    +0.026 A 
ATOM      3  C   UNL     1     -38.438 148.817   6.222  1.00  0.00    +0.008 A 
ATOM      4  C   UNL     1     -39.033 148.249   5.083  1.00  0.00    -0.022 A 
ATOM      5  C   UNL     1     -39.311 149.077   3.972  1.00  0.00    +0.062 A 
ATOM      6  C   UNL     1     -39.010 150.456   4.052  1.00  0.00    +0.039 A 
ENDROOT
BRANCH   1   7
ATOM      7  N   UNL     1     -38.101 152.379   5.326  1.00  0.00    -0.322 N 
ATOM      8  C   UNL     1     -36.844 152.936   5.484  1.00  0.00    +0.255 C 
ATOM      9  O   UNL     1     -35.784 152.333   5.606  1.00  0.00    -0.269 OA
ATOM     10  H   UNL     1     -38.890 153.009   5.381  1.00  0.00    +0.170 HD
BRANCH   8  11
ATOM     11  C   UNL     1     -36.822 154.423   5.555  1.00  0.00    +0.041 A 
ATOM     12  C   UNL     1     -36.744 157.230   5.762  1.00  0.00    -0.035 A 
ATOM     13  C   UNL     1     -36.212 156.423   6.779  1.00  0.00    +0.005 A 
ATOM     14  C   UNL     1     -37.301 156.615   4.627  1.00  0.00    +0.029 A 
ATOM     15  C   UNL     1     -36.247 155.031   6.675  1.00  0.00    +0.014 A 
ATOM     16  C   UNL     1     -37.335 155.217   4.523  1.00  0.00    +0.031 A 
ATOM     17  C   UNL     1     -37.844 157.385   3.546  1.00  0.00    -0.060 C 
ATOM     18  C   UNL     1     -36.689 158.727   5.900  1.00  0.00    +0.045 C 
BRANCH  17  19
ATOM     19  C   UNL     1     -38.301 158.014   2.631  1.00  0.00    -0.040 C 
ATOM     20  C   UNL     1     -38.855 158.754   1.555  1.00  0.00    +0.135 A 
ATOM     21  C   UNL     1     -38.237 159.181   0.401  1.00  0.00    +0.151 A 
ATOM     22  N   UNL     1     -40.153 159.196   1.456  1.00  0.00    -0.205 N 
ATOM     23  N   UNL     1     -39.108 159.869  -0.408  1.00  0.00    -0.234 NA
ATOM     24  N   UNL     1     -41.148 159.008   2.381  1.00  0.00    -0.174 NA
ATOM     25  C   UNL     1     -40.252 159.863   0.242  1.00  0.00    +0.154 A 
ATOM     26  C   UNL     1     -42.275 159.530   2.014  1.00  0.00    +0.134 C 
ATOM     27  C   UNL     1     -41.512 160.411  -0.094  1.00  0.00    +0.051 C 
ATOM     28  C   UNL     1     -42.537 160.267   0.754  1.00  0.00    +0.026 C 
ENDBRANCH  17  19
ENDBRANCH   8  11
ENDBRANCH   1   7
BRANCH   5  29
ATOM     29  C   UNL     1     -39.955 148.556   2.700  1.00  0.00    +0.416 C 
ATOM     30  F   UNL     1     -40.142 149.537   1.767  1.00  0.00    -0.166 F 
ATOM     31  F   UNL     1     -39.214 147.611   2.052  1.00  0.00    -0.166 F 
ATOM     32  F   UNL     1     -41.190 148.017   2.900  1.00  0.00    -0.166 F 
ENDBRANCH   5  29
BRANCH   4  33
ATOM     33  C   UNL     1     -39.348 146.763   5.089  1.00  0.00    +0.120 C 
BRANCH  33  34
ATOM     34  N   UNL     1     -40.072 146.351   6.292  1.00  0.00    -0.297 NA
ATOM     35  C   UNL     1     -39.969 144.905   6.583  1.00  0.00    +0.100 C 
ATOM     36  C   UNL     1     -41.481 146.790   6.231  1.00  0.00    +0.100 C 
ATOM     37  C   UNL     1     -41.226 144.094   6.197  1.00  0.00    +0.099 C 
ATOM     38  C   UNL     1     -42.403 145.994   7.179  1.00  0.00    +0.099 C 
ATOM     39  N   UNL     1     -42.444 144.545   6.898  1.00  0.00    -0.304 NA
ATOM     40  C   UNL     1     -43.642 144.162   6.156  1.00  0.00    +0.105 C 
ENDBRANCH  33  34
ENDBRANCH   4  33
TORSDOF 6
ENDMDL
MODEL 9
REMARK VINA RESULT:   -10.073      8.412     13.988
REMARK INTER + INTRA:         -14.257
REMARK INTER:                 -13.308
REMARK INTRA:                  -0.949
REMARK UNBOUND:                -0.652
REMARK SMILES Cc1ccc(C(=O)Nc2ccc(CN3CCN(C)CC3)c(C(F)(F)F)c2)cc1C#Cc1cnc2cccnn12
REMARK SMILES IDX 9 1 10 2 11 3 12 4 21 5 26 6 8 7 6 8 7 9 5 11 2 12 3 13
REMARK SMILES IDX 28 14 4 15 27 16 29 17 1 18 30 19 31 20 32 21 39 22 33 23
REMARK SMILES IDX 38 24 34 25 37 26 35 27 36 28 22 29 23 30 24 31 25 32 13 33
REMARK SMILES IDX 14 34 15 35 20 36 16 37 19 38 17 39 18 40
REMARK H PARENT 8 10
ROOT
ATOM      1  C   UNL     1     -38.636 150.755   4.356  1.00  0.00    +0.042 A 
ATOM      2  C   UNL     1     -39.994 150.487   4.173  1.00  0.00    +0.026 A 
ATOM      3  C   UNL     1     -40.432 149.196   3.874  1.00  0.00    +0.008 A 
ATOM      4  C   UNL     1     -39.520 148.135   3.745  1.00  0.00    -0.022 A 
ATOM      5  C   UNL     1     -38.143 148.389   3.941  1.00  0.00    +0.062 A 
ATOM      6  C   UNL     1     -37.723 149.707   4.232  1.00  0.00    +0.039 A 
ENDROOT
BRANCH   1   7
ATOM      7  N   UNL     1     -38.276 152.089   4.643  1.00  0.00    -0.322 N 
ATOM      8  C   UNL     1     -37.478 152.540   5.679  1.00  0.00    +0.255 C 
ATOM      9  O   UNL     1     -36.997 151.866   6.582  1.00  0.00    -0.269 OA
ATOM     10  H   UNL     1     -38.709 152.793   4.059  1.00  0.00    +0.170 HD
BRANCH   8  11
ATOM     11  C   UNL     1     -37.240 154.010   5.693  1.00  0.00    +0.041 A 
ATOM     12  C   UNL     1     -36.751 156.780   5.790  1.00  0.00    -0.035 A 
ATOM     13  C   UNL     1     -36.291 155.938   6.813  1.00  0.00    +0.005 A 
ATOM     14  C   UNL     1     -37.445 156.218   4.704  1.00  0.00    +0.029 A 
ATOM     15  C   UNL     1     -36.530 154.563   6.763  1.00  0.00    +0.014 A 
ATOM     16  C   UNL     1     -37.683 154.837   4.655  1.00  0.00    +0.031 A 
ATOM     17  C   UNL     1     -37.923 157.025   3.620  1.00  0.00    -0.060 C 
ATOM     18  C   UNL     1     -36.474 158.258   5.868  1.00  0.00    +0.045 C 
BRANCH  17  19
ATOM     19  C   UNL     1     -38.330 157.684   2.703  1.00  0.00    -0.040 C 
ATOM     20  C   UNL     1     -38.824 158.462   1.624  1.00  0.00    +0.135 A 
ATOM     21  C   UNL     1     -38.164 158.862   0.484  1.00  0.00    +0.151 A 
ATOM     22  N   UNL     1     -40.094 158.975   1.507  1.00  0.00    -0.205 N 
ATOM     23  N   UNL     1     -38.982 159.603  -0.334  1.00  0.00    -0.234 NA
ATOM     24  N   UNL     1     -41.113 158.836   2.414  1.00  0.00    -0.174 NA
ATOM     25  C   UNL     1     -40.136 159.656   0.298  1.00  0.00    +0.154 A 
ATOM     26  C   UNL     1     -42.204 159.422   2.033  1.00  0.00    +0.134 C 
ATOM     27  C   UNL     1     -41.357 160.274  -0.055  1.00  0.00    +0.051 C 
ATOM     28  C   UNL     1     -42.403 160.181   0.775  1.00  0.00    +0.026 C 
ENDBRANCH  17  19
ENDBRANCH   8  11
ENDBRANCH   1   7
BRANCH   5  29
ATOM     29  C   UNL     1     -37.084 147.309   3.819  1.00  0.00    +0.416 C 
ATOM     30  F   UNL     1     -35.827 147.775   4.085  1.00  0.00    -0.166 F 
ATOM     31  F   UNL     1     -37.250 146.270   4.689  1.00  0.00    -0.166 F 
ATOM     32  F   UNL     1     -37.004 146.767   2.572  1.00  0.00    -0.166 F 
ENDBRANCH   5  29
BRANCH   4  33
ATOM     33  C   UNL     1     -40.052 146.754   3.404  1.00  0.00    +0.120 C 
BRANCH  33  34
ATOM     34  N   UNL     1     -40.800 146.738   2.147  1.00  0.00    -0.297 NA
ATOM     35  C   UNL     1     -41.539 145.480   1.909  1.00  0.00    +0.100 C 
ATOM     36  C   UNL     1     -39.918 147.070   1.009  1.00  0.00    +0.100 C 
ATOM     37  C   UNL     1     -40.859 144.532   0.896  1.00  0.00    +0.099 C 
ATOM     38  C   UNL     1     -40.481 146.599  -0.349  1.00  0.00    +0.099 C 
ATOM     39  N   UNL     1     -40.685 145.138  -0.439  1.00  0.00    -0.304 NA
ATOM     40  C   UNL     1     -39.612 144.478  -1.174  1.00  0.00    +0.105 C 
ENDBRANCH  33  34
ENDBRANCH   4  33
TORSDOF 6
ENDMDL
MODEL 10
REMARK VINA RESULT:   -10.032      7.935     15.349
REMARK INTER + INTRA:         -14.202
REMARK INTER:                 -13.391
REMARK INTRA:                  -0.811
REMARK UNBOUND:                -0.652
REMARK SMILES Cc1ccc(C(=O)Nc2ccc(CN3CCN(C)CC3)c(C(F)(F)F)c2)cc1C#Cc1cnc2cccnn12
REMARK SMILES IDX 9 1 10 2 11 3 12 4 21 5 26 6 8 7 6 8 7 9 5 11 2 12 3 13
REMARK SMILES IDX 28 14 4 15 27 16 29 17 1 18 30 19 31 20 32 21 39 22 33 23
REMARK SMILES IDX 38 24 34 25 37 26 35 27 36 28 22 29 23 30 24 31 25 32 13 33
REMARK SMILES IDX 14 34 15 35 20 36 16 37 19 38 17 39 18 40
REMARK H PARENT 8 10
ROOT
ATOM      1  C   UNL     1     -37.852 150.874   5.049  1.00  0.00    +0.042 A 
ATOM      2  C   UNL     1     -36.876 149.979   5.490  1.00  0.00    +0.026 A 
ATOM      3  C   UNL     1     -37.171 148.623   5.647  1.00  0.00    +0.008 A 
ATOM      4  C   UNL     1     -38.455 148.126   5.370  1.00  0.00    -0.022 A 
ATOM      5  C   UNL     1     -39.449 149.018   4.909  1.00  0.00    +0.062 A 
ATOM      6  C   UNL     1     -39.130 150.388   4.769  1.00  0.00    +0.039 A 
ENDROOT
BRANCH   1   7
ATOM      7  N   UNL     1     -37.476 152.229   4.929  1.00  0.00    -0.322 N 
ATOM      8  C   UNL     1     -36.950 153.046   5.913  1.00  0.00    +0.255 C 
ATOM      9  O   UNL     1     -36.781 152.760   7.093  1.00  0.00    -0.269 OA
ATOM     10  H   UNL     1     -37.680 152.661   4.037  1.00  0.00    +0.170 HD
BRANCH   8  11
ATOM     11  C   UNL     1     -36.607 154.425   5.466  1.00  0.00    +0.041 A 
ATOM     12  C   UNL     1     -35.886 157.023   4.658  1.00  0.00    -0.035 A 
ATOM     13  C   UNL     1     -34.988 156.226   5.384  1.00  0.00    +0.005 A 
ATOM     14  C   UNL     1     -37.146 156.498   4.324  1.00  0.00    +0.029 A 
ATOM     15  C   UNL     1     -35.344 154.935   5.782  1.00  0.00    +0.014 A 
ATOM     16  C   UNL     1     -37.502 155.201   4.723  1.00  0.00    +0.031 A 
ATOM     17  C   UNL     1     -38.099 157.257   3.569  1.00  0.00    -0.060 C 
ATOM     18  C   UNL     1     -35.473 158.408   4.240  1.00  0.00    +0.045 C 
BRANCH  17  19
ATOM     19  C   UNL     1     -38.909 157.877   2.936  1.00  0.00    -0.040 C 
ATOM     20  C   UNL     1     -39.856 158.617   2.181  1.00  0.00    +0.135 A 
ATOM     21  C   UNL     1     -41.207 158.759   2.404  1.00  0.00    +0.151 A 
ATOM     22  N   UNL     1     -39.595 159.357   1.052  1.00  0.00    -0.205 N 
ATOM     23  N   UNL     1     -41.790 159.562   1.454  1.00  0.00    -0.234 NA
ATOM     24  N   UNL     1     -38.375 159.510   0.445  1.00  0.00    -0.174 NA
ATOM     25  C   UNL     1     -40.804 159.912   0.655  1.00  0.00    +0.154 A 
ATOM     26  C   UNL     1     -38.430 160.273  -0.601  1.00  0.00    +0.134 C 
ATOM     27  C   UNL     1     -40.792 160.733  -0.496  1.00  0.00    +0.051 C 
ATOM     28  C   UNL     1     -39.639 160.937  -1.145  1.00  0.00    +0.026 C 
ENDBRANCH  17  19
ENDBRANCH   8  11
ENDBRANCH   1   7
BRANCH   5  29
ATOM     29  C   UNL     1     -40.865 148.575   4.588  1.00  0.00    +0.416 C 
ATOM     30  F   UNL     1     -41.608 149.569   4.015  1.00  0.00    -0.166 F 
ATOM     31  F   UNL     1     -40.933 147.546   3.694  1.00  0.00    -0.166 F 
ATOM     32  F   UNL     1     -41.574 148.190   5.684  1.00  0.00    -0.166 F 
ENDBRANCH   5  29
BRANCH   4  33
ATOM     33  C   UNL     1     -38.721 146.645   5.572  1.00  0.00    +0.120 C 
BRANCH  33  34
ATOM     34  N   UNL     1     -38.550 146.231   6.965  1.00  0.00    -0.297 NA
ATOM     35  C   UNL     1     -38.738 144.781   7.183  1.00  0.00    +0.100 C 
ATOM     36  C   UNL     1     -39.415 147.028   7.858  1.00  0.00    +0.100 C 
ATOM     37  C   UNL     1     -40.104 144.410   7.802  1.00  0.00    +0.099 C 
ATOM     38  C   UNL     1     -39.666 146.348   9.221  1.00  0.00    +0.099 C 
ATOM     39  N   UNL     1     -40.333 145.033   9.120  1.00  0.00    -0.304 NA
ATOM     40  C   UNL     1     -41.760 145.117   9.416  1.00  0.00    +0.105 C 
ENDBRANCH  33  34
ENDBRANCH   4  33
TORSDOF 6
ENDMDL
