MODEL 1
REMARK VINA RESULT:    -9.169      0.000      0.000
REMARK INTER + INTRA:         -12.841
REMARK INTER:                 -12.118
REMARK INTRA:                  -0.723
REMARK UNBOUND:                -0.723
REMARK SMILES Cc1ccc(Nc2nccc(N(C)c3ccc4c(C)n(C)nc4c3)n2)cc1S(N)(=O)=O
REMARK SMILES IDX 6 1 5 3 2 4 3 5 27 6 4 7 26 8 1 9 28 10 30 11 31 12 29 13
REMARK SMILES IDX 7 16 8 17 25 18 9 19 11 20 10 21 12 22 13 23 14 24 15 25
REMARK SMILES IDX 24 26 16 27 23 28 17 29 22 30 18 31 20 32 19 33 21 34
REMARK H PARENT 6 2 29 14 29 15
ROOT
ATOM      1  N   UNL     1      -7.573   0.732 -17.327  1.00  0.00    -0.324 N 
ATOM      2  H   UNL     1      -8.049   0.343 -18.128  1.00  0.00    +0.170 HD
ENDROOT
BRANCH   1   3
ATOM      3  C   UNL     1      -6.789  -0.137 -16.562  1.00  0.00    +0.042 A 
ATOM      4  C   UNL     1      -5.256  -1.867 -14.892  1.00  0.00    -0.031 A 
ATOM      5  C   UNL     1      -4.924  -1.675 -16.239  1.00  0.00    +0.007 A 
ATOM      6  C   UNL     1      -6.357  -1.164 -14.379  1.00  0.00    +0.087 A 
ATOM      7  C   UNL     1      -5.680  -0.824 -17.055  1.00  0.00    +0.026 A 
ATOM      8  C   UNL     1      -7.113  -0.316 -15.209  1.00  0.00    +0.048 A 
ATOM      9  C   UNL     1      -4.408  -2.786 -14.057  1.00  0.00    +0.046 C 
BRANCH   6  10
ATOM     10  S   UNL     1      -6.803  -1.325 -12.670  1.00  0.00    +0.238 S 
ATOM     11  O   UNL     1      -7.343  -2.648 -12.463  1.00  0.00    -0.207 OA
ATOM     12  O   UNL     1      -5.750  -0.772 -11.854  1.00  0.00    -0.207 OA
BRANCH  10  13
ATOM     13  N   UNL     1      -8.100  -0.273 -12.453  1.00  0.00    -0.225 NA
ATOM     14  H   UNL     1      -8.567  -0.502 -11.573  1.00  0.00    +0.137 HD
ATOM     15  H   UNL     1      -8.714  -0.330 -13.266  1.00  0.00    +0.137 HD
ENDBRANCH  10  13
ENDBRANCH   6  10
ENDBRANCH   1   3
BRANCH   1  16
ATOM     16  C   UNL     1      -7.828   2.100 -17.290  1.00  0.00    +0.229 A 
ATOM     17  N   UNL     1      -7.013   2.837 -18.057  1.00  0.00    -0.221 NA
ATOM     18  N   UNL     1      -8.816   2.621 -16.549  1.00  0.00    -0.195 NA
ATOM     19  C   UNL     1      -7.223   4.162 -18.068  1.00  0.00    +0.119 A 
ATOM     20  C   UNL     1      -9.003   3.957 -16.556  1.00  0.00    +0.138 A 
ATOM     21  C   UNL     1      -8.207   4.775 -17.336  1.00  0.00    +0.067 A 
BRANCH  20  22
ATOM     22  N   UNL     1     -10.053   4.544 -15.796  1.00  0.00    -0.329 N 
ATOM     23  C   UNL     1     -10.909   5.440 -16.583  1.00  0.00    +0.152 C 
BRANCH  22  24
ATOM     24  C   UNL     1     -10.806   3.864 -14.785  1.00  0.00    +0.044 A 
ATOM     25  C   UNL     1     -12.164   4.258 -14.507  1.00  0.00    +0.027 A 
ATOM     26  C   UNL     1     -10.170   2.812 -14.076  1.00  0.00    +0.057 A 
ATOM     27  C   UNL     1     -12.992   3.655 -13.535  1.00  0.00    +0.014 A 
ATOM     28  C   UNL     1     -10.972   2.195 -13.103  1.00  0.00    +0.095 A 
ATOM     29  C   UNL     1     -12.327   2.630 -12.873  1.00  0.00    +0.023 A 
ATOM     30  N   UNL     1     -10.686   1.182 -12.270  1.00  0.00    -0.173 NA
ATOM     31  C   UNL     1     -12.844   1.843 -11.872  1.00  0.00    +0.043 A 
ATOM     32  N   UNL     1     -11.809   0.999 -11.545  1.00  0.00    -0.272 N 
ATOM     33  C   UNL     1     -14.167   1.800 -11.204  1.00  0.00    +0.067 C 
ATOM     34  C   UNL     1     -11.823  -0.037 -10.537  1.00  0.00    +0.174 C 
ENDBRANCH  22  24
ENDBRANCH  20  22
ENDBRANCH   1  16
TORSDOF 6
ENDMDL
MODEL 2
REMARK VINA RESULT:    -9.042      3.647      7.608
REMARK INTER + INTRA:         -12.672
REMARK INTER:                 -12.410
REMARK INTRA:                  -0.262
REMARK UNBOUND:                -0.723
REMARK SMILES Cc1ccc(Nc2nccc(N(C)c3ccc4c(C)n(C)nc4c3)n2)cc1S(N)(=O)=O
REMARK SMILES IDX 6 1 5 3 2 4 3 5 27 6 4 7 26 8 1 9 28 10 30 11 31 12 29 13
REMARK SMILES IDX 7 16 8 17 25 18 9 19 11 20 10 21 12 22 13 23 14 24 15 25
REMARK SMILES IDX 24 26 16 27 23 28 17 29 22 30 18 31 20 32 19 33 21 34
REMARK H PARENT 6 2 29 14 29 15
ROOT
ATOM      1  N   UNL     1     -10.323   1.144 -12.552  1.00  0.00    -0.324 N 
ATOM      2  H   UNL     1      -9.546   0.552 -12.295  1.00  0.00    +0.170 HD
ENDROOT
BRANCH   1   3
ATOM      3  C   UNL     1     -11.486   1.047 -11.783  1.00  0.00    +0.042 A 
ATOM      4  C   UNL     1     -13.810   0.734 -10.159  1.00  0.00    -0.031 A 
ATOM      5  C   UNL     1     -13.756   1.699 -11.174  1.00  0.00    +0.007 A 
ATOM      6  C   UNL     1     -12.690  -0.092  -9.978  1.00  0.00    +0.087 A 
ATOM      7  C   UNL     1     -12.612   1.848 -11.969  1.00  0.00    +0.026 A 
ATOM      8  C   UNL     1     -11.545   0.070 -10.778  1.00  0.00    +0.048 A 
ATOM      9  C   UNL     1     -15.063   0.610  -9.339  1.00  0.00    +0.046 C 
BRANCH   6  10
ATOM     10  S   UNL     1     -12.709  -1.365  -8.742  1.00  0.00    +0.238 S 
ATOM     11  O   UNL     1     -12.740  -0.737  -7.442  1.00  0.00    -0.207 OA
ATOM     12  O   UNL     1     -13.641  -2.393  -9.139  1.00  0.00    -0.207 OA
BRANCH  10  13
ATOM     13  N   UNL     1     -11.200  -2.103  -8.846  1.00  0.00    -0.225 NA
ATOM     14  H   UNL     1     -10.542  -1.450  -9.278  1.00  0.00    +0.137 HD
ATOM     15  H   UNL     1     -11.294  -2.982  -9.357  1.00  0.00    +0.137 HD
ENDBRANCH  10  13
ENDBRANCH   6  10
ENDBRANCH   1   3
BRANCH   1  16
ATOM     16  C   UNL     1      -9.923   1.950 -13.614  1.00  0.00    +0.229 A 
ATOM     17  N   UNL     1      -8.669   1.734 -14.034  1.00  0.00    -0.221 NA
ATOM     18  N   UNL     1     -10.740   2.859 -14.166  1.00  0.00    -0.195 NA
ATOM     19  C   UNL     1      -8.237   2.476 -15.065  1.00  0.00    +0.119 A 
ATOM     20  C   UNL     1     -10.285   3.611 -15.190  1.00  0.00    +0.138 A 
ATOM     21  C   UNL     1      -9.005   3.430 -15.681  1.00  0.00    +0.067 A 
BRANCH  20  22
ATOM     22  N   UNL     1     -11.129   4.572 -15.812  1.00  0.00    -0.329 N 
ATOM     23  C   UNL     1     -12.151   5.117 -14.909  1.00  0.00    +0.152 C 
BRANCH  22  24
ATOM     24  C   UNL     1     -10.689   5.558 -16.751  1.00  0.00    +0.044 A 
ATOM     25  C   UNL     1     -10.158   6.815 -16.285  1.00  0.00    +0.027 A 
ATOM     26  C   UNL     1     -10.800   5.259 -18.133  1.00  0.00    +0.057 A 
ATOM     27  C   UNL     1      -9.697   7.853 -17.124  1.00  0.00    +0.014 A 
ATOM     28  C   UNL     1     -10.347   6.274 -18.990  1.00  0.00    +0.095 A 
ATOM     29  C   UNL     1      -9.822   7.509 -18.465  1.00  0.00    +0.023 A 
ATOM     30  N   UNL     1     -10.309   6.313 -20.332  1.00  0.00    -0.173 NA
ATOM     31  C   UNL     1      -9.467   8.291 -19.538  1.00  0.00    +0.043 A 
ATOM     32  N   UNL     1      -9.792   7.522 -20.631  1.00  0.00    -0.272 N 
ATOM     33  C   UNL     1      -8.876   9.647 -19.647  1.00  0.00    +0.067 C 
ATOM     34  C   UNL     1      -9.622   7.880 -22.021  1.00  0.00    +0.174 C 
ENDBRANCH  22  24
ENDBRANCH  20  22
ENDBRANCH   1  16
TORSDOF 6
ENDMDL
MODEL 3
REMARK VINA RESULT:    -9.037      2.235      3.040
REMARK INTER + INTRA:         -12.666
REMARK INTER:                 -12.501
REMARK INTRA:                  -0.165
REMARK UNBOUND:                -0.723
REMARK SMILES Cc1ccc(Nc2nccc(N(C)c3ccc4c(C)n(C)nc4c3)n2)cc1S(N)(=O)=O
REMARK SMILES IDX 6 1 5 3 2 4 3 5 27 6 4 7 26 8 1 9 28 10 30 11 31 12 29 13
REMARK SMILES IDX 7 16 8 17 25 18 9 19 11 20 10 21 12 22 13 23 14 24 15 25
REMARK SMILES IDX 24 26 16 27 23 28 17 29 22 30 18 31 20 32 19 33 21 34
REMARK H PARENT 6 2 29 14 29 15
ROOT
ATOM      1  N   UNL     1      -6.538   3.739 -17.541  1.00  0.00    -0.324 N 
ATOM      2  H   UNL     1      -5.888   3.885 -18.299  1.00  0.00    +0.170 HD
ENDROOT
BRANCH   1   3
ATOM      3  C   UNL     1      -6.153   2.859 -16.526  1.00  0.00    +0.042 A 
ATOM      4  C   UNL     1      -5.390   0.963 -14.537  1.00  0.00    -0.031 A 
ATOM      5  C   UNL     1      -5.565   2.316 -14.222  1.00  0.00    +0.007 A 
ATOM      6  C   UNL     1      -5.624   0.561 -15.862  1.00  0.00    +0.087 A 
ATOM      7  C   UNL     1      -5.939   3.244 -15.202  1.00  0.00    +0.026 A 
ATOM      8  C   UNL     1      -5.995   1.501 -16.839  1.00  0.00    +0.048 A 
ATOM      9  C   UNL     1      -4.993   0.006 -13.448  1.00  0.00    +0.046 C 
BRANCH   6  10
ATOM     10  S   UNL     1      -5.467  -1.146 -16.319  1.00  0.00    +0.238 S 
ATOM     11  O   UNL     1      -4.116  -1.570 -16.039  1.00  0.00    -0.207 OA
ATOM     12  O   UNL     1      -6.628  -1.867 -15.854  1.00  0.00    -0.207 OA
BRANCH  10  13
ATOM     13  N   UNL     1      -5.604  -1.167 -17.997  1.00  0.00    -0.225 NA
ATOM     14  H   UNL     1      -4.715  -0.869 -18.404  1.00  0.00    +0.137 HD
ATOM     15  H   UNL     1      -6.394  -0.583 -18.273  1.00  0.00    +0.137 HD
ENDBRANCH  10  13
ENDBRANCH   6  10
ENDBRANCH   1   3
BRANCH   1  16
ATOM     16  C   UNL     1      -7.641   4.562 -17.750  1.00  0.00    +0.229 A 
ATOM     17  N   UNL     1      -7.583   5.295 -18.871  1.00  0.00    -0.221 NA
ATOM     18  N   UNL     1      -8.673   4.602 -16.895  1.00  0.00    -0.195 NA
ATOM     19  C   UNL     1      -8.627   6.098 -19.126  1.00  0.00    +0.119 A 
ATOM     20  C   UNL     1      -9.708   5.427 -17.156  1.00  0.00    +0.138 A 
ATOM     21  C   UNL     1      -9.718   6.202 -18.301  1.00  0.00    +0.067 A 
BRANCH  20  22
ATOM     22  N   UNL     1     -10.828   5.482 -16.280  1.00  0.00    -0.329 N 
ATOM     23  C   UNL     1     -12.060   5.930 -16.941  1.00  0.00    +0.152 C 
BRANCH  22  24
ATOM     24  C   UNL     1     -11.109   4.523 -15.255  1.00  0.00    +0.044 A 
ATOM     25  C   UNL     1     -10.102   3.570 -14.861  1.00  0.00    +0.027 A 
ATOM     26  C   UNL     1     -12.397   4.542 -14.660  1.00  0.00    +0.057 A 
ATOM     27  C   UNL     1     -10.275   2.585 -13.864  1.00  0.00    +0.014 A 
ATOM     28  C   UNL     1     -12.595   3.573 -13.664  1.00  0.00    +0.095 A 
ATOM     29  C   UNL     1     -11.548   2.649 -13.309  1.00  0.00    +0.023 A 
ATOM     30  N   UNL     1     -13.679   3.323 -12.912  1.00  0.00    -0.173 NA
ATOM     31  C   UNL     1     -12.040   1.835 -12.317  1.00  0.00    +0.043 A 
ATOM     32  N   UNL     1     -13.327   2.283 -12.129  1.00  0.00    -0.272 N 
ATOM     33  C   UNL     1     -11.454   0.709 -11.550  1.00  0.00    +0.067 C 
ATOM     34  C   UNL     1     -14.296   1.763 -11.190  1.00  0.00    +0.174 C 
ENDBRANCH  22  24
ENDBRANCH  20  22
ENDBRANCH   1  16
TORSDOF 6
ENDMDL
MODEL 4
REMARK VINA RESULT:    -9.008      4.672      8.106
REMARK INTER + INTRA:         -12.627
REMARK INTER:                 -12.073
REMARK INTRA:                  -0.555
REMARK UNBOUND:                -0.723
REMARK SMILES Cc1ccc(Nc2nccc(N(C)c3ccc4c(C)n(C)nc4c3)n2)cc1S(N)(=O)=O
REMARK SMILES IDX 6 1 5 3 2 4 3 5 27 6 4 7 26 8 1 9 28 10 30 11 31 12 29 13
REMARK SMILES IDX 7 16 8 17 25 18 9 19 11 20 10 21 12 22 13 23 14 24 15 25
REMARK SMILES IDX 24 26 16 27 23 28 17 29 22 30 18 31 20 32 19 33 21 34
REMARK H PARENT 6 2 29 14 29 15
ROOT
ATOM      1  N   UNL     1     -13.626   1.954 -12.869  1.00  0.00    -0.324 N 
ATOM      2  H   UNL     1     -14.405   1.479 -13.300  1.00  0.00    +0.170 HD
ENDROOT
BRANCH   1   3
ATOM      3  C   UNL     1     -13.080   1.377 -11.719  1.00  0.00    +0.042 A 
ATOM      4  C   UNL     1     -12.083   0.222  -9.309  1.00  0.00    -0.031 A 
ATOM      5  C   UNL     1     -11.237   0.481 -10.395  1.00  0.00    +0.007 A 
ATOM      6  C   UNL     1     -13.437   0.569  -9.433  1.00  0.00    +0.087 A 
ATOM      7  C   UNL     1     -11.732   1.048 -11.576  1.00  0.00    +0.026 A 
ATOM      8  C   UNL     1     -13.924   1.134 -10.625  1.00  0.00    +0.048 A 
ATOM      9  C   UNL     1     -11.501  -0.382  -8.062  1.00  0.00    +0.046 C 
BRANCH   6  10
ATOM     10  S   UNL     1     -14.553   0.312  -8.078  1.00  0.00    +0.238 S 
ATOM     11  O   UNL     1     -14.725  -1.109  -7.893  1.00  0.00    -0.207 OA
ATOM     12  O   UNL     1     -14.201   1.206  -7.001  1.00  0.00    -0.207 OA
BRANCH  10  13
ATOM     13  N   UNL     1     -16.043   0.876  -8.622  1.00  0.00    -0.225 NA
ATOM     14  H   UNL     1     -15.908   1.784  -9.072  1.00  0.00    +0.137 HD
ATOM     15  H   UNL     1     -16.695   0.904  -7.837  1.00  0.00    +0.137 HD
ENDBRANCH  10  13
ENDBRANCH   6  10
ENDBRANCH   1   3
BRANCH   1  16
ATOM     16  C   UNL     1     -13.302   3.059 -13.650  1.00  0.00    +0.229 A 
ATOM     17  N   UNL     1     -14.293   3.951 -13.788  1.00  0.00    -0.221 NA
ATOM     18  N   UNL     1     -12.092   3.209 -14.207  1.00  0.00    -0.195 NA
ATOM     19  C   UNL     1     -14.030   5.043 -14.523  1.00  0.00    +0.119 A 
ATOM     20  C   UNL     1     -11.848   4.303 -14.959  1.00  0.00    +0.138 A 
ATOM     21  C   UNL     1     -12.822   5.269 -15.131  1.00  0.00    +0.067 A 
BRANCH  20  22
ATOM     22  N   UNL     1     -10.570   4.503 -15.550  1.00  0.00    -0.329 N 
ATOM     23  C   UNL     1      -9.848   3.251 -15.810  1.00  0.00    +0.152 C 
BRANCH  22  24
ATOM     24  C   UNL     1     -10.279   5.486 -16.549  1.00  0.00    +0.044 A 
ATOM     25  C   UNL     1      -9.898   6.821 -16.162  1.00  0.00    +0.027 A 
ATOM     26  C   UNL     1     -10.385   5.102 -17.912  1.00  0.00    +0.057 A 
ATOM     27  C   UNL     1      -9.590   7.862 -17.064  1.00  0.00    +0.014 A 
ATOM     28  C   UNL     1     -10.084   6.120 -18.830  1.00  0.00    +0.095 A 
ATOM     29  C   UNL     1      -9.704   7.436 -18.382  1.00  0.00    +0.023 A 
ATOM     30  N   UNL     1     -10.083   6.093 -20.173  1.00  0.00    -0.173 NA
ATOM     31  C   UNL     1      -9.476   8.199 -19.503  1.00  0.00    +0.043 A 
ATOM     32  N   UNL     1      -9.728   7.339 -20.546  1.00  0.00    -0.272 N 
ATOM     33  C   UNL     1      -9.062   9.610 -19.697  1.00  0.00    +0.067 C 
ATOM     34  C   UNL     1      -9.639   7.642 -21.957  1.00  0.00    +0.174 C 
ENDBRANCH  22  24
ENDBRANCH  20  22
ENDBRANCH   1  16
TORSDOF 6
ENDMDL
MODEL 5
REMARK VINA RESULT:    -8.969      3.484      6.343
REMARK INTER + INTRA:         -12.575
REMARK INTER:                 -12.380
REMARK INTRA:                  -0.196
REMARK UNBOUND:                -0.723
REMARK SMILES Cc1ccc(Nc2nccc(N(C)c3ccc4c(C)n(C)nc4c3)n2)cc1S(N)(=O)=O
REMARK SMILES IDX 6 1 5 3 2 4 3 5 27 6 4 7 26 8 1 9 28 10 30 11 31 12 29 13
REMARK SMILES IDX 7 16 8 17 25 18 9 19 11 20 10 21 12 22 13 23 14 24 15 25
REMARK SMILES IDX 24 26 16 27 23 28 17 29 22 30 18 31 20 32 19 33 21 34
REMARK H PARENT 6 2 29 14 29 15
ROOT
ATOM      1  N   UNL     1      -7.788   0.634 -16.708  1.00  0.00    -0.324 N 
ATOM      2  H   UNL     1      -8.333   0.574 -17.556  1.00  0.00    +0.170 HD
ENDROOT
BRANCH   1   3
ATOM      3  C   UNL     1      -6.630  -0.146 -16.633  1.00  0.00    +0.042 A 
ATOM      4  C   UNL     1      -4.216  -1.664 -16.578  1.00  0.00    -0.031 A 
ATOM      5  C   UNL     1      -5.345  -2.068 -15.855  1.00  0.00    +0.007 A 
ATOM      6  C   UNL     1      -4.314  -0.496 -17.352  1.00  0.00    +0.087 A 
ATOM      7  C   UNL     1      -6.528  -1.320 -15.885  1.00  0.00    +0.026 A 
ATOM      8  C   UNL     1      -5.506   0.250 -17.371  1.00  0.00    +0.048 A 
ATOM      9  C   UNL     1      -2.972  -2.506 -16.518  1.00  0.00    +0.046 C 
BRANCH   6  10
ATOM     10  S   UNL     1      -2.937   0.046 -18.329  1.00  0.00    +0.238 S 
ATOM     11  O   UNL     1      -2.287   1.133 -17.637  1.00  0.00    -0.207 OA
ATOM     12  O   UNL     1      -2.224  -1.109 -18.821  1.00  0.00    -0.207 OA
BRANCH  10  13
ATOM     13  N   UNL     1      -3.619   0.736 -19.706  1.00  0.00    -0.225 NA
ATOM     14  H   UNL     1      -3.877   1.702 -19.497  1.00  0.00    +0.137 HD
ATOM     15  H   UNL     1      -4.405   0.161 -20.011  1.00  0.00    +0.137 HD
ENDBRANCH  10  13
ENDBRANCH   6  10
ENDBRANCH   1   3
BRANCH   1  16
ATOM     16  C   UNL     1      -8.381   1.578 -15.875  1.00  0.00    +0.229 A 
ATOM     17  N   UNL     1      -8.005   1.500 -14.591  1.00  0.00    -0.221 NA
ATOM     18  N   UNL     1      -9.249   2.490 -16.335  1.00  0.00    -0.195 NA
ATOM     19  C   UNL     1      -8.539   2.395 -13.746  1.00  0.00    +0.119 A 
ATOM     20  C   UNL     1      -9.791   3.373 -15.471  1.00  0.00    +0.138 A 
ATOM     21  C   UNL     1      -9.437   3.355 -14.134  1.00  0.00    +0.067 A 
BRANCH  20  22
ATOM     22  N   UNL     1     -10.702   4.365 -15.927  1.00  0.00    -0.329 N 
ATOM     23  C   UNL     1     -11.616   4.839 -14.881  1.00  0.00    +0.152 C 
BRANCH  22  24
ATOM     24  C   UNL     1     -10.372   5.416 -16.841  1.00  0.00    +0.044 A 
ATOM     25  C   UNL     1      -9.935   6.697 -16.344  1.00  0.00    +0.027 A 
ATOM     26  C   UNL     1     -10.496   5.154 -18.230  1.00  0.00    +0.057 A 
ATOM     27  C   UNL     1      -9.586   7.797 -17.157  1.00  0.00    +0.014 A 
ATOM     28  C   UNL     1     -10.154   6.233 -19.061  1.00  0.00    +0.095 A 
ATOM     29  C   UNL     1      -9.719   7.489 -18.505  1.00  0.00    +0.023 A 
ATOM     30  N   UNL     1     -10.157   6.319 -20.401  1.00  0.00    -0.173 NA
ATOM     31  C   UNL     1      -9.461   8.334 -19.559  1.00  0.00    +0.043 A 
ATOM     32  N   UNL     1      -9.751   7.577 -20.670  1.00  0.00    -0.272 N 
ATOM     33  C   UNL     1      -8.989   9.738 -19.635  1.00  0.00    +0.067 C 
ATOM     34  C   UNL     1      -9.651   7.994 -22.051  1.00  0.00    +0.174 C 
ENDBRANCH  22  24
ENDBRANCH  20  22
ENDBRANCH   1  16
TORSDOF 6
ENDMDL
MODEL 6
REMARK VINA RESULT:    -8.949      2.952      5.902
REMARK INTER + INTRA:         -12.549
REMARK INTER:                 -11.880
REMARK INTRA:                  -0.669
REMARK UNBOUND:                -0.723
REMARK SMILES Cc1ccc(Nc2nccc(N(C)c3ccc4c(C)n(C)nc4c3)n2)cc1S(N)(=O)=O
REMARK SMILES IDX 6 1 5 3 2 4 3 5 27 6 4 7 26 8 1 9 28 10 30 11 31 12 29 13
REMARK SMILES IDX 7 16 8 17 25 18 9 19 11 20 10 21 12 22 13 23 14 24 15 25
REMARK SMILES IDX 24 26 16 27 23 28 17 29 22 30 18 31 20 32 19 33 21 34
REMARK H PARENT 6 2 29 14 29 15
ROOT
ATOM      1  N   UNL     1      -6.518   2.326 -15.473  1.00  0.00    -0.324 N 
ATOM      2  H   UNL     1      -5.979   3.169 -15.611  1.00  0.00    +0.170 HD
ENDROOT
BRANCH   1   3
ATOM      3  C   UNL     1      -5.884   1.109 -15.737  1.00  0.00    +0.042 A 
ATOM      4  C   UNL     1      -4.530  -1.365 -16.158  1.00  0.00    -0.031 A 
ATOM      5  C   UNL     1      -5.250  -0.747 -17.188  1.00  0.00    +0.007 A 
ATOM      6  C   UNL     1      -4.475  -0.718 -14.914  1.00  0.00    +0.087 A 
ATOM      7  C   UNL     1      -5.913   0.468 -16.976  1.00  0.00    +0.026 A 
ATOM      8  C   UNL     1      -5.149   0.499 -14.711  1.00  0.00    +0.048 A 
ATOM      9  C   UNL     1      -3.830  -2.666 -16.439  1.00  0.00    +0.046 C 
BRANCH   6  10
ATOM     10  S   UNL     1      -3.540  -1.424 -13.581  1.00  0.00    +0.238 S 
ATOM     11  O   UNL     1      -4.261  -2.567 -13.075  1.00  0.00    -0.207 OA
ATOM     12  O   UNL     1      -2.148  -1.478 -13.958  1.00  0.00    -0.207 OA
BRANCH  10  13
ATOM     13  N   UNL     1      -3.597  -0.277 -12.349  1.00  0.00    -0.225 NA
ATOM     14  H   UNL     1      -2.649   0.056 -12.165  1.00  0.00    +0.137 HD
ATOM     15  H   UNL     1      -4.050  -0.689 -11.532  1.00  0.00    +0.137 HD
ENDBRANCH  10  13
ENDBRANCH   6  10
ENDBRANCH   1   3
BRANCH   1  16
ATOM     16  C   UNL     1      -7.768   2.685 -14.977  1.00  0.00    +0.229 A 
ATOM     17  N   UNL     1      -8.023   2.239 -13.739  1.00  0.00    -0.221 NA
ATOM     18  N   UNL     1      -8.632   3.424 -15.688  1.00  0.00    -0.195 NA
ATOM     19  C   UNL     1      -9.211   2.567 -13.208  1.00  0.00    +0.119 A 
ATOM     20  C   UNL     1      -9.830   3.730 -15.147  1.00  0.00    +0.138 A 
ATOM     21  C   UNL     1     -10.152   3.312 -13.870  1.00  0.00    +0.067 A 
BRANCH  20  22
ATOM     22  N   UNL     1     -10.764   4.526 -15.866  1.00  0.00    -0.329 N 
ATOM     23  C   UNL     1     -11.925   4.928 -15.061  1.00  0.00    +0.152 C 
BRANCH  22  24
ATOM     24  C   UNL     1     -10.413   5.542 -16.811  1.00  0.00    +0.044 A 
ATOM     25  C   UNL     1      -9.958   6.831 -16.352  1.00  0.00    +0.027 A 
ATOM     26  C   UNL     1     -10.534   5.239 -18.192  1.00  0.00    +0.057 A 
ATOM     27  C   UNL     1      -9.587   7.899 -17.198  1.00  0.00    +0.014 A 
ATOM     28  C   UNL     1     -10.171   6.284 -19.055  1.00  0.00    +0.095 A 
ATOM     29  C   UNL     1      -9.719   7.551 -18.537  1.00  0.00    +0.023 A 
ATOM     30  N   UNL     1     -10.165   6.329 -20.397  1.00  0.00    -0.173 NA
ATOM     31  C   UNL     1      -9.442   8.358 -19.615  1.00  0.00    +0.043 A 
ATOM     32  N   UNL     1      -9.738   7.571 -20.703  1.00  0.00    -0.272 N 
ATOM     33  C   UNL     1      -8.947   9.751 -19.732  1.00  0.00    +0.067 C 
ATOM     34  C   UNL     1      -9.624   7.942 -22.096  1.00  0.00    +0.174 C 
ENDBRANCH  22  24
ENDBRANCH  20  22
ENDBRANCH   1  16
TORSDOF 6
ENDMDL
MODEL 7
REMARK VINA RESULT:    -8.909      2.130      2.865
REMARK INTER + INTRA:         -12.497
REMARK INTER:                 -12.281
REMARK INTRA:                  -0.216
REMARK UNBOUND:                -0.723
REMARK SMILES Cc1ccc(Nc2nccc(N(C)c3ccc4c(C)n(C)nc4c3)n2)cc1S(N)(=O)=O
REMARK SMILES IDX 6 1 5 3 2 4 3 5 27 6 4 7 26 8 1 9 28 10 30 11 31 12 29 13
REMARK SMILES IDX 7 16 8 17 25 18 9 19 11 20 10 21 12 22 13 23 14 24 15 25
REMARK SMILES IDX 24 26 16 27 23 28 17 29 22 30 18 31 20 32 19 33 21 34
REMARK H PARENT 6 2 29 14 29 15
ROOT
ATOM      1  N   UNL     1      -6.437   3.952 -17.557  1.00  0.00    -0.324 N 
ATOM      2  H   UNL     1      -5.712   4.161 -18.228  1.00  0.00    +0.170 HD
ENDROOT
BRANCH   1   3
ATOM      3  C   UNL     1      -6.125   3.051 -16.535  1.00  0.00    +0.042 A 
ATOM      4  C   UNL     1      -5.513   1.111 -14.536  1.00  0.00    -0.031 A 
ATOM      5  C   UNL     1      -5.638   2.470 -14.217  1.00  0.00    +0.007 A 
ATOM      6  C   UNL     1      -5.720   0.727 -15.870  1.00  0.00    +0.087 A 
ATOM      7  C   UNL     1      -5.939   3.418 -15.202  1.00  0.00    +0.026 A 
ATOM      8  C   UNL     1      -6.017   1.689 -16.853  1.00  0.00    +0.048 A 
ATOM      9  C   UNL     1      -5.196   0.132 -13.440  1.00  0.00    +0.046 C 
BRANCH   6  10
ATOM     10  S   UNL     1      -5.624  -0.983 -16.333  1.00  0.00    +0.238 S 
ATOM     11  O   UNL     1      -4.317  -1.478 -15.974  1.00  0.00    -0.207 OA
ATOM     12  O   UNL     1      -6.847  -1.645 -15.948  1.00  0.00    -0.207 OA
BRANCH  10  13
ATOM     13  N   UNL     1      -5.657  -0.985 -18.017  1.00  0.00    -0.225 NA
ATOM     14  H   UNL     1      -5.719  -1.951 -18.344  1.00  0.00    +0.137 HD
ATOM     15  H   UNL     1      -4.836  -0.489 -18.366  1.00  0.00    +0.137 HD
ENDBRANCH  10  13
ENDBRANCH   6  10
ENDBRANCH   1   3
BRANCH   1  16
ATOM     16  C   UNL     1      -7.551   4.728 -17.864  1.00  0.00    +0.229 A 
ATOM     17  N   UNL     1      -7.478   5.362 -19.043  1.00  0.00    -0.221 NA
ATOM     18  N   UNL     1      -8.605   4.819 -17.041  1.00  0.00    -0.195 NA
ATOM     19  C   UNL     1      -8.532   6.115 -19.394  1.00  0.00    +0.119 A 
ATOM     20  C   UNL     1      -9.650   5.595 -17.399  1.00  0.00    +0.138 A 
ATOM     21  C   UNL     1      -9.645   6.266 -18.608  1.00  0.00    +0.067 A 
BRANCH  20  22
ATOM     22  N   UNL     1     -10.793   5.700 -16.559  1.00  0.00    -0.329 N 
ATOM     23  C   UNL     1     -11.974   6.231 -17.250  1.00  0.00    +0.152 C 
BRANCH  22  24
ATOM     24  C   UNL     1     -11.163   4.742 -15.562  1.00  0.00    +0.044 A 
ATOM     25  C   UNL     1     -12.359   4.937 -14.781  1.00  0.00    +0.027 A 
ATOM     26  C   UNL     1     -10.317   3.619 -15.371  1.00  0.00    +0.057 A 
ATOM     27  C   UNL     1     -12.814   4.055 -13.776  1.00  0.00    +0.014 A 
ATOM     28  C   UNL     1     -10.747   2.726 -14.377  1.00  0.00    +0.095 A 
ATOM     29  C   UNL     1     -11.956   2.971 -13.632  1.00  0.00    +0.023 A 
ATOM     30  N   UNL     1     -10.191   1.580 -13.953  1.00  0.00    -0.173 NA
ATOM     31  C   UNL     1     -12.106   1.932 -12.744  1.00  0.00    +0.043 A 
ATOM     32  N   UNL     1     -11.011   1.134 -12.979  1.00  0.00    -0.272 N 
ATOM     33  C   UNL     1     -13.135   1.616 -11.724  1.00  0.00    +0.067 C 
ATOM     34  C   UNL     1     -10.680  -0.102 -12.305  1.00  0.00    +0.174 C 
ENDBRANCH  22  24
ENDBRANCH  20  22
ENDBRANCH   1  16
TORSDOF 6
ENDMDL
MODEL 8
REMARK VINA RESULT:    -8.866      1.463      1.906
REMARK INTER + INTRA:         -12.440
REMARK INTER:                 -11.795
REMARK INTRA:                  -0.644
REMARK UNBOUND:                -0.723
REMARK SMILES Cc1ccc(Nc2nccc(N(C)c3ccc4c(C)n(C)nc4c3)n2)cc1S(N)(=O)=O
REMARK SMILES IDX 6 1 5 3 2 4 3 5 27 6 4 7 26 8 1 9 28 10 30 11 31 12 29 13
REMARK SMILES IDX 7 16 8 17 25 18 9 19 11 20 10 21 12 22 13 23 14 24 15 25
REMARK SMILES IDX 24 26 16 27 23 28 17 29 22 30 18 31 20 32 19 33 21 34
REMARK H PARENT 6 2 29 14 29 15
ROOT
ATOM      1  N   UNL     1      -6.442   3.696 -17.355  1.00  0.00    -0.324 N 
ATOM      2  H   UNL     1      -5.616   4.272 -17.277  1.00  0.00    +0.170 HD
ENDROOT
BRANCH   1   3
ATOM      3  C   UNL     1      -6.301   2.333 -17.081  1.00  0.00    +0.042 A 
ATOM      4  C   UNL     1      -6.033  -0.422 -16.392  1.00  0.00    -0.031 A 
ATOM      5  C   UNL     1      -5.749   0.035 -17.686  1.00  0.00    +0.007 A 
ATOM      6  C   UNL     1      -6.434   0.523 -15.435  1.00  0.00    +0.087 A 
ATOM      7  C   UNL     1      -5.882   1.389 -18.019  1.00  0.00    +0.026 A 
ATOM      8  C   UNL     1      -6.570   1.879 -15.782  1.00  0.00    +0.048 A 
ATOM      9  C   UNL     1      -5.868  -1.884 -16.084  1.00  0.00    +0.046 C 
BRANCH   6  10
ATOM     10  S   UNL     1      -6.764   0.019 -13.766  1.00  0.00    +0.238 S 
ATOM     11  O   UNL     1      -7.787  -0.999 -13.792  1.00  0.00    -0.207 OA
ATOM     12  O   UNL     1      -5.512  -0.144 -13.067  1.00  0.00    -0.207 OA
BRANCH  10  13
ATOM     13  N   UNL     1      -7.482   1.356 -13.036  1.00  0.00    -0.225 NA
ATOM     14  H   UNL     1      -7.400   1.262 -12.022  1.00  0.00    +0.137 HD
ATOM     15  H   UNL     1      -8.446   1.435 -13.362  1.00  0.00    +0.137 HD
ENDBRANCH  10  13
ENDBRANCH   6  10
ENDBRANCH   1   3
BRANCH   1  16
ATOM     16  C   UNL     1      -7.519   4.520 -17.670  1.00  0.00    +0.229 A 
ATOM     17  N   UNL     1      -7.387   5.189 -18.824  1.00  0.00    -0.221 NA
ATOM     18  N   UNL     1      -8.596   4.620 -16.878  1.00  0.00    -0.195 NA
ATOM     19  C   UNL     1      -8.403   5.989 -19.182  1.00  0.00    +0.119 A 
ATOM     20  C   UNL     1      -9.602   5.442 -17.242  1.00  0.00    +0.138 A 
ATOM     21  C   UNL     1      -9.536   6.152 -18.427  1.00  0.00    +0.067 A 
BRANCH  20  22
ATOM     22  N   UNL     1     -10.767   5.559 -16.435  1.00  0.00    -0.329 N 
ATOM     23  C   UNL     1     -11.936   6.056 -17.172  1.00  0.00    +0.152 C 
BRANCH  22  24
ATOM     24  C   UNL     1     -11.153   4.627 -15.420  1.00  0.00    +0.044 A 
ATOM     25  C   UNL     1     -12.319   4.879 -14.611  1.00  0.00    +0.027 A 
ATOM     26  C   UNL     1     -10.352   3.469 -15.240  1.00  0.00    +0.057 A 
ATOM     27  C   UNL     1     -12.786   4.026 -13.587  1.00  0.00    +0.014 A 
ATOM     28  C   UNL     1     -10.795   2.604 -14.227  1.00  0.00    +0.095 A 
ATOM     29  C   UNL     1     -11.973   2.908 -13.454  1.00  0.00    +0.023 A 
ATOM     30  N   UNL     1     -10.278   1.439 -13.806  1.00  0.00    -0.173 NA
ATOM     31  C   UNL     1     -12.145   1.884 -12.553  1.00  0.00    +0.043 A 
ATOM     32  N   UNL     1     -11.091   1.037 -12.807  1.00  0.00    -0.272 N 
ATOM     33  C   UNL     1     -13.160   1.622 -11.504  1.00  0.00    +0.067 C 
ATOM     34  C   UNL     1     -10.797  -0.206 -12.130  1.00  0.00    +0.174 C 
ENDBRANCH  22  24
ENDBRANCH  20  22
ENDBRANCH   1  16
TORSDOF 6
ENDMDL
MODEL 9
REMARK VINA RESULT:    -8.848      1.889      6.045
REMARK INTER + INTRA:         -12.416
REMARK INTER:                 -11.640
REMARK INTRA:                  -0.776
REMARK UNBOUND:                -0.723
REMARK SMILES Cc1ccc(Nc2nccc(N(C)c3ccc4c(C)n(C)nc4c3)n2)cc1S(N)(=O)=O
REMARK SMILES IDX 6 1 5 3 2 4 3 5 27 6 4 7 26 8 1 9 28 10 30 11 31 12 29 13
REMARK SMILES IDX 7 16 8 17 25 18 9 19 11 20 10 21 12 22 13 23 14 24 15 25
REMARK SMILES IDX 24 26 16 27 23 28 17 29 22 30 18 31 20 32 19 33 21 34
REMARK H PARENT 6 2 29 14 29 15
ROOT
ATOM      1  N   UNL     1     -10.739   4.549 -15.839  1.00  0.00    -0.324 N 
ATOM      2  H   UNL     1     -11.427   5.251 -16.069  1.00  0.00    +0.170 HD
ENDROOT
BRANCH   1   3
ATOM      3  C   UNL     1     -11.039   3.675 -14.791  1.00  0.00    +0.042 A 
ATOM      4  C   UNL     1     -11.576   1.799 -12.711  1.00  0.00    -0.031 A 
ATOM      5  C   UNL     1     -12.272   3.012 -12.793  1.00  0.00    +0.007 A 
ATOM      6  C   UNL     1     -10.617   1.523 -13.698  1.00  0.00    +0.087 A 
ATOM      7  C   UNL     1     -12.005   3.930 -13.816  1.00  0.00    +0.026 A 
ATOM      8  C   UNL     1     -10.353   2.454 -14.719  1.00  0.00    +0.048 A 
ATOM      9  C   UNL     1     -11.904   0.846 -11.596  1.00  0.00    +0.046 C 
BRANCH   6  10
ATOM     10  S   UNL     1      -9.733  -0.015 -13.680  1.00  0.00    +0.238 S 
ATOM     11  O   UNL     1     -10.594  -1.028 -13.119  1.00  0.00    -0.207 OA
ATOM     12  O   UNL     1      -9.045  -0.178 -14.938  1.00  0.00    -0.207 OA
BRANCH  10  13
ATOM     13  N   UNL     1      -8.501   0.200 -12.552  1.00  0.00    -0.225 NA
ATOM     14  H   UNL     1      -7.701   0.634 -13.017  1.00  0.00    +0.137 HD
ATOM     15  H   UNL     1      -8.283  -0.700 -12.123  1.00  0.00    +0.137 HD
ENDBRANCH  10  13
ENDBRANCH   6  10
ENDBRANCH   1   3
BRANCH   1  16
ATOM     16  C   UNL     1      -9.686   4.660 -16.743  1.00  0.00    +0.229 A 
ATOM     17  N   UNL     1      -9.950   5.422 -17.814  1.00  0.00    -0.221 NA
ATOM     18  N   UNL     1      -8.506   4.055 -16.541  1.00  0.00    -0.195 NA
ATOM     19  C   UNL     1      -8.964   5.572 -18.711  1.00  0.00    +0.119 A 
ATOM     20  C   UNL     1      -7.530   4.200 -17.461  1.00  0.00    +0.138 A 
ATOM     21  C   UNL     1      -7.732   4.983 -18.583  1.00  0.00    +0.067 A 
BRANCH  20  22
ATOM     22  N   UNL     1      -6.261   3.587 -17.271  1.00  0.00    -0.329 N 
ATOM     23  C   UNL     1      -5.222   4.526 -16.831  1.00  0.00    +0.152 C 
BRANCH  22  24
ATOM     24  C   UNL     1      -6.060   2.289 -16.702  1.00  0.00    +0.044 A 
ATOM     25  C   UNL     1      -6.083   1.118 -17.543  1.00  0.00    +0.027 A 
ATOM     26  C   UNL     1      -5.848   2.201 -15.301  1.00  0.00    +0.057 A 
ATOM     27  C   UNL     1      -5.896  -0.204 -17.084  1.00  0.00    +0.014 A 
ATOM     28  C   UNL     1      -5.659   0.897 -14.819  1.00  0.00    +0.095 A 
ATOM     29  C   UNL     1      -5.688  -0.235 -15.710  1.00  0.00    +0.023 A 
ATOM     30  N   UNL     1      -5.434   0.468 -13.567  1.00  0.00    -0.173 NA
ATOM     31  C   UNL     1      -5.474  -1.360 -14.949  1.00  0.00    +0.043 A 
ATOM     32  N   UNL     1      -5.338  -0.874 -13.670  1.00  0.00    -0.272 N 
ATOM     33  C   UNL     1      -5.390  -2.803 -15.281  1.00  0.00    +0.067 C 
ATOM     34  C   UNL     1      -5.097  -1.646 -12.472  1.00  0.00    +0.174 C 
ENDBRANCH  22  24
ENDBRANCH  20  22
ENDBRANCH   1  16
TORSDOF 6
ENDMDL
MODEL 10
REMARK VINA RESULT:    -8.610      2.370      3.580
REMARK INTER + INTRA:         -12.102
REMARK INTER:                 -11.117
REMARK INTRA:                  -0.985
REMARK UNBOUND:                -0.723
REMARK SMILES Cc1ccc(Nc2nccc(N(C)c3ccc4c(C)n(C)nc4c3)n2)cc1S(N)(=O)=O
REMARK SMILES IDX 6 1 5 3 2 4 3 5 27 6 4 7 26 8 1 9 28 10 30 11 31 12 29 13
REMARK SMILES IDX 7 16 8 17 25 18 9 19 11 20 10 21 12 22 13 23 14 24 15 25
REMARK SMILES IDX 24 26 16 27 23 28 17 29 22 30 18 31 20 32 19 33 21 34
REMARK H PARENT 6 2 29 14 29 15
ROOT
ATOM      1  N   UNL     1      -5.457  -0.125 -13.663  1.00  0.00    -0.324 N 
ATOM      2  H   UNL     1      -4.455  -0.054 -13.561  1.00  0.00    +0.170 HD
ENDROOT
BRANCH   1   3
ATOM      3  C   UNL     1      -6.166  -0.729 -12.620  1.00  0.00    +0.042 A 
ATOM      4  C   UNL     1      -7.727  -1.921 -10.553  1.00  0.00    -0.031 A 
ATOM      5  C   UNL     1      -6.336  -1.803 -10.437  1.00  0.00    +0.007 A 
ATOM      6  C   UNL     1      -8.336  -1.413 -11.712  1.00  0.00    +0.087 A 
ATOM      7  C   UNL     1      -5.574  -1.217 -11.455  1.00  0.00    +0.026 A 
ATOM      8  C   UNL     1      -7.561  -0.831 -12.730  1.00  0.00    +0.048 A 
ATOM      9  C   UNL     1      -8.500  -2.553  -9.430  1.00  0.00    +0.046 C 
BRANCH   6  10
ATOM     10  S   UNL     1     -10.099  -1.487 -11.901  1.00  0.00    +0.238 S 
ATOM     11  O   UNL     1     -10.488  -2.873 -11.999  1.00  0.00    -0.207 OA
ATOM     12  O   UNL     1     -10.711  -0.564 -10.975  1.00  0.00    -0.207 OA
BRANCH  10  13
ATOM     13  N   UNL     1     -10.406  -0.827 -13.419  1.00  0.00    -0.225 NA
ATOM     14  H   UNL     1      -9.550  -0.867 -13.976  1.00  0.00    +0.137 HD
ATOM     15  H   UNL     1     -10.771   0.119 -13.302  1.00  0.00    +0.137 HD
ENDBRANCH  10  13
ENDBRANCH   6  10
ENDBRANCH   1   3
BRANCH   1  16
ATOM     16  C   UNL     1      -5.819   0.496 -14.855  1.00  0.00    +0.229 A 
ATOM     17  N   UNL     1      -5.365  -0.113 -15.959  1.00  0.00    -0.221 NA
ATOM     18  N   UNL     1      -6.567   1.608 -14.880  1.00  0.00    -0.195 NA
ATOM     19  C   UNL     1      -5.695   0.438 -17.137  1.00  0.00    +0.119 A 
ATOM     20  C   UNL     1      -6.876   2.161 -16.072  1.00  0.00    +0.138 A 
ATOM     21  C   UNL     1      -6.451   1.577 -17.250  1.00  0.00    +0.067 A 
BRANCH  20  22
ATOM     22  N   UNL     1      -7.683   3.331 -16.137  1.00  0.00    -0.329 N 
ATOM     23  C   UNL     1      -7.619   4.008 -17.439  1.00  0.00    +0.152 C 
BRANCH  22  24
ATOM     24  C   UNL     1      -8.982   3.460 -15.550  1.00  0.00    +0.044 A 
ATOM     25  C   UNL     1      -9.886   4.483 -16.012  1.00  0.00    +0.027 A 
ATOM     26  C   UNL     1      -9.334   2.562 -14.509  1.00  0.00    +0.057 A 
ATOM     27  C   UNL     1     -11.186   4.695 -15.502  1.00  0.00    +0.014 A 
ATOM     28  C   UNL     1     -10.622   2.751 -13.985  1.00  0.00    +0.095 A 
ATOM     29  C   UNL     1     -11.484   3.790 -14.491  1.00  0.00    +0.023 A 
ATOM     30  N   UNL     1     -11.260   2.084 -13.010  1.00  0.00    -0.173 NA
ATOM     31  C   UNL     1     -12.662   3.722 -13.786  1.00  0.00    +0.043 A 
ATOM     32  N   UNL     1     -12.463   2.684 -12.905  1.00  0.00    -0.272 N 
ATOM     33  C   UNL     1     -13.919   4.507 -13.842  1.00  0.00    +0.067 C 
ATOM     34  C   UNL     1     -13.401   2.192 -11.922  1.00  0.00    +0.174 C 
ENDBRANCH  22  24
ENDBRANCH  20  22
ENDBRANCH   1  16
TORSDOF 6
ENDMDL
