MODEL 1
REMARK VINA RESULT:   -12.988      0.000      0.000
REMARK INTER + INTRA:         -17.836
REMARK INTER:                 -17.544
REMARK INTRA:                  -0.292
REMARK UNBOUND:                -0.292
REMARK SMILES Cc1ccc(C(=O)Nc2ccc(CN3CCN(C)CC3)c(C(F)(F)F)c2)cc1C#Cc1cnc2cccnn12
REMARK SMILES IDX 9 1 10 2 11 3 12 4 21 5 26 6 8 7 6 8 7 9 5 11 2 12 3 13
REMARK SMILES IDX 28 14 4 15 27 16 29 17 1 18 30 19 31 20 32 21 39 22 33 23
REMARK SMILES IDX 38 24 34 25 37 26 35 27 36 28 22 29 23 30 24 31 25 32 13 33
REMARK SMILES IDX 14 34 15 35 20 36 16 37 19 38 17 39 18 40
REMARK H PARENT 8 10
ROOT
ATOM      1  C   UNL     1     -39.205 161.288  -3.511  1.00  0.00    +0.042 A 
ATOM      2  C   UNL     1     -38.993 160.582  -4.691  1.00  0.00    +0.026 A 
ATOM      3  C   UNL     1     -38.549 161.241  -5.841  1.00  0.00    +0.008 A 
ATOM      4  C   UNL     1     -38.299 162.623  -5.840  1.00  0.00    -0.022 A 
ATOM      5  C   UNL     1     -38.483 163.348  -4.642  1.00  0.00    +0.062 A 
ATOM      6  C   UNL     1     -38.948 162.664  -3.497  1.00  0.00    +0.039 A 
ENDROOT
BRANCH   1   7
ATOM      7  N   UNL     1     -39.655 160.703  -2.309  1.00  0.00    -0.322 N 
ATOM      8  C   UNL     1     -39.535 161.218  -1.030  1.00  0.00    +0.255 C 
ATOM      9  O   UNL     1     -38.958 162.247  -0.702  1.00  0.00    -0.269 OA
ATOM     10  H   UNL     1     -40.047 159.775  -2.392  1.00  0.00    +0.170 HD
BRANCH   8  11
ATOM     11  C   UNL     1     -40.151 160.383   0.039  1.00  0.00    +0.041 A 
ATOM     12  C   UNL     1     -41.240 158.784   2.080  1.00  0.00    -0.035 A 
ATOM     13  C   UNL     1     -42.064 159.623   1.312  1.00  0.00    +0.005 A 
ATOM     14  C   UNL     1     -39.856 158.766   1.824  1.00  0.00    +0.029 A 
ATOM     15  C   UNL     1     -41.525 160.421   0.301  1.00  0.00    +0.014 A 
ATOM     16  C   UNL     1     -39.317 159.568   0.811  1.00  0.00    +0.031 A 
ATOM     17  C   UNL     1     -38.970 157.937   2.587  1.00  0.00    -0.060 C 
ATOM     18  C   UNL     1     -41.848 157.938   3.166  1.00  0.00    +0.045 C 
BRANCH  17  19
ATOM     19  C   UNL     1     -38.242 157.236   3.236  1.00  0.00    -0.040 C 
ATOM     20  C   UNL     1     -37.369 156.422   4.001  1.00  0.00    +0.135 A 
ATOM     21  C   UNL     1     -37.568 155.135   4.450  1.00  0.00    +0.151 A 
ATOM     22  N   UNL     1     -36.119 156.775   4.454  1.00  0.00    -0.205 N 
ATOM     23  N   UNL     1     -36.486 154.681   5.166  1.00  0.00    -0.234 NA
ATOM     24  N   UNL     1     -35.488 157.975   4.249  1.00  0.00    -0.174 NA
ATOM     25  C   UNL     1     -35.628 155.681   5.154  1.00  0.00    +0.154 A 
ATOM     26  C   UNL     1     -34.314 158.023   4.794  1.00  0.00    +0.134 C 
ATOM     27  C   UNL     1     -34.341 155.801   5.724  1.00  0.00    +0.051 C 
ATOM     28  C   UNL     1     -33.658 156.942   5.569  1.00  0.00    +0.026 C 
ENDBRANCH  17  19
ENDBRANCH   8  11
ENDBRANCH   1   7
BRANCH   5  29
ATOM     29  C   UNL     1     -38.230 164.840  -4.537  1.00  0.00    +0.416 C 
ATOM     30  F   UNL     1     -38.695 165.564  -5.592  1.00  0.00    -0.166 F 
ATOM     31  F   UNL     1     -36.891 165.126  -4.491  1.00  0.00    -0.166 F 
ATOM     32  F   UNL     1     -38.745 165.401  -3.410  1.00  0.00    -0.166 F 
ENDBRANCH   5  29
BRANCH   4  33
ATOM     33  C   UNL     1     -37.834 163.279  -7.128  1.00  0.00    +0.120 C 
BRANCH  33  34
ATOM     34  N   UNL     1     -37.793 162.340  -8.249  1.00  0.00    -0.297 NA
ATOM     35  C   UNL     1     -36.421 161.998  -8.684  1.00  0.00    +0.100 C 
ATOM     36  C   UNL     1     -38.605 162.842  -9.378  1.00  0.00    +0.100 C 
ATOM     37  C   UNL     1     -35.967 162.720  -9.973  1.00  0.00    +0.099 C 
ATOM     38  C   UNL     1     -38.229 162.193 -10.728  1.00  0.00    +0.099 C 
ATOM     39  N   UNL     1     -36.829 162.426 -11.135  1.00  0.00    -0.304 NA
ATOM     40  C   UNL     1     -36.716 163.475 -12.143  1.00  0.00    +0.105 C 
ENDBRANCH  33  34
ENDBRANCH   4  33
TORSDOF 6
ENDMDL
MODEL 2
REMARK VINA RESULT:   -12.650      4.558     12.838
REMARK INTER + INTRA:         -17.378
REMARK INTER:                 -17.415
REMARK INTRA:                   0.037
REMARK UNBOUND:                -0.292
REMARK SMILES Cc1ccc(C(=O)Nc2ccc(CN3CCN(C)CC3)c(C(F)(F)F)c2)cc1C#Cc1cnc2cccnn12
REMARK SMILES IDX 9 1 10 2 11 3 12 4 21 5 26 6 8 7 6 8 7 9 5 11 2 12 3 13
REMARK SMILES IDX 28 14 4 15 27 16 29 17 1 18 30 19 31 20 32 21 39 22 33 23
REMARK SMILES IDX 38 24 34 25 37 26 35 27 36 28 22 29 23 30 24 31 25 32 13 33
REMARK SMILES IDX 14 34 15 35 20 36 16 37 19 38 17 39 18 40
REMARK H PARENT 8 10
ROOT
ATOM      1  C   UNL     1     -37.766 156.380   4.767  1.00  0.00    +0.042 A 
ATOM      2  C   UNL     1     -38.250 155.406   5.634  1.00  0.00    +0.026 A 
ATOM      3  C   UNL     1     -37.370 154.648   6.411  1.00  0.00    +0.008 A 
ATOM      4  C   UNL     1     -35.981 154.848   6.345  1.00  0.00    -0.022 A 
ATOM      5  C   UNL     1     -35.476 155.852   5.490  1.00  0.00    +0.062 A 
ATOM      6  C   UNL     1     -36.385 156.595   4.703  1.00  0.00    +0.039 A 
ENDROOT
BRANCH   1   7
ATOM      7  N   UNL     1     -38.583 157.186   3.946  1.00  0.00    -0.322 N 
ATOM      8  C   UNL     1     -38.218 157.834   2.779  1.00  0.00    +0.255 C 
ATOM      9  O   UNL     1     -37.101 157.880   2.280  1.00  0.00    -0.269 OA
ATOM     10  H   UNL     1     -39.518 157.358   4.291  1.00  0.00    +0.170 HD
BRANCH   8  11
ATOM     11  C   UNL     1     -39.321 158.579   2.108  1.00  0.00    +0.041 A 
ATOM     12  C   UNL     1     -41.348 160.018   0.794  1.00  0.00    -0.035 A 
ATOM     13  C   UNL     1     -41.668 159.064   1.773  1.00  0.00    +0.005 A 
ATOM     14  C   UNL     1     -39.996 160.233   0.466  1.00  0.00    +0.029 A 
ATOM     15  C   UNL     1     -40.664 158.345   2.425  1.00  0.00    +0.014 A 
ATOM     16  C   UNL     1     -38.990 159.511   1.120  1.00  0.00    +0.031 A 
ATOM     17  C   UNL     1     -39.616 161.186  -0.534  1.00  0.00    -0.060 C 
ATOM     18  C   UNL     1     -42.452 160.775   0.105  1.00  0.00    +0.045 C 
BRANCH  17  19
ATOM     19  C   UNL     1     -39.316 161.989  -1.375  1.00  0.00    -0.040 C 
ATOM     20  C   UNL     1     -38.961 162.923  -2.381  1.00  0.00    +0.135 A 
ATOM     21  C   UNL     1     -38.743 164.277  -2.258  1.00  0.00    +0.151 A 
ATOM     22  N   UNL     1     -38.761 162.644  -3.713  1.00  0.00    -0.205 N 
ATOM     23  N   UNL     1     -38.416 164.845  -3.466  1.00  0.00    -0.234 NA
ATOM     24  N   UNL     1     -38.866 161.414  -4.312  1.00  0.00    -0.174 NA
ATOM     25  C   UNL     1     -38.432 163.846  -4.325  1.00  0.00    +0.154 A 
ATOM     26  C   UNL     1     -38.620 161.454  -5.583  1.00  0.00    +0.134 C 
ATOM     27  C   UNL     1     -38.176 163.818  -5.714  1.00  0.00    +0.051 C 
ATOM     28  C   UNL     1     -38.258 162.656  -6.373  1.00  0.00    +0.026 C 
ENDBRANCH  17  19
ENDBRANCH   8  11
ENDBRANCH   1   7
BRANCH   5  29
ATOM     29  C   UNL     1     -33.996 156.152   5.357  1.00  0.00    +0.416 C 
ATOM     30  F   UNL     1     -33.431 156.696   6.471  1.00  0.00    -0.166 F 
ATOM     31  F   UNL     1     -33.749 157.068   4.369  1.00  0.00    -0.166 F 
ATOM     32  F   UNL     1     -33.249 155.065   5.021  1.00  0.00    -0.166 F 
ENDBRANCH   5  29
BRANCH   4  33
ATOM     33  C   UNL     1     -35.079 153.979   7.204  1.00  0.00    +0.120 C 
BRANCH  33  34
ATOM     34  N   UNL     1     -34.732 152.717   6.549  1.00  0.00    -0.297 NA
ATOM     35  C   UNL     1     -35.553 152.425   5.354  1.00  0.00    +0.100 C 
ATOM     36  C   UNL     1     -34.776 151.600   7.517  1.00  0.00    +0.100 C 
ATOM     37  C   UNL     1     -36.663 151.376   5.589  1.00  0.00    +0.099 C 
ATOM     38  C   UNL     1     -34.912 150.219   6.840  1.00  0.00    +0.099 C 
ATOM     39  N   UNL     1     -36.138 150.068   6.030  1.00  0.00    -0.304 NA
ATOM     40  C   UNL     1     -37.168 149.304   6.727  1.00  0.00    +0.105 C 
ENDBRANCH  33  34
ENDBRANCH   4  33
TORSDOF 6
ENDMDL
MODEL 3
REMARK VINA RESULT:   -12.489      0.832      1.500
REMARK INTER + INTRA:         -17.162
REMARK INTER:                 -17.025
REMARK INTRA:                  -0.136
REMARK UNBOUND:                -0.292
REMARK SMILES Cc1ccc(C(=O)Nc2ccc(CN3CCN(C)CC3)c(C(F)(F)F)c2)cc1C#Cc1cnc2cccnn12
REMARK SMILES IDX 9 1 10 2 11 3 12 4 21 5 26 6 8 7 6 8 7 9 5 11 2 12 3 13
REMARK SMILES IDX 28 14 4 15 27 16 29 17 1 18 30 19 31 20 32 21 39 22 33 23
REMARK SMILES IDX 38 24 34 25 37 26 35 27 36 28 22 29 23 30 24 31 25 32 13 33
REMARK SMILES IDX 14 34 15 35 20 36 16 37 19 38 17 39 18 40
REMARK H PARENT 8 10
ROOT
ATOM      1  C   UNL     1     -39.234 161.316  -3.556  1.00  0.00    +0.042 A 
ATOM      2  C   UNL     1     -39.122 160.629  -4.760  1.00  0.00    +0.026 A 
ATOM      3  C   UNL     1     -38.719 161.296  -5.921  1.00  0.00    +0.008 A 
ATOM      4  C   UNL     1     -38.412 162.667  -5.907  1.00  0.00    -0.022 A 
ATOM      5  C   UNL     1     -38.494 163.371  -4.685  1.00  0.00    +0.062 A 
ATOM      6  C   UNL     1     -38.918 162.679  -3.528  1.00  0.00    +0.039 A 
ENDROOT
BRANCH   1   7
ATOM      7  N   UNL     1     -39.636 160.722  -2.341  1.00  0.00    -0.322 N 
ATOM      8  C   UNL     1     -39.489 161.240  -1.066  1.00  0.00    +0.255 C 
ATOM      9  O   UNL     1     -38.924 162.280  -0.755  1.00  0.00    -0.269 OA
ATOM     10  H   UNL     1     -40.012 159.786  -2.413  1.00  0.00    +0.170 HD
BRANCH   8  11
ATOM     11  C   UNL     1     -40.056 160.393   0.021  1.00  0.00    +0.041 A 
ATOM     12  C   UNL     1     -41.053 158.787   2.103  1.00  0.00    -0.035 A 
ATOM     13  C   UNL     1     -41.926 159.381   1.177  1.00  0.00    +0.005 A 
ATOM     14  C   UNL     1     -39.669 159.021   1.984  1.00  0.00    +0.029 A 
ATOM     15  C   UNL     1     -41.434 160.182   0.144  1.00  0.00    +0.014 A 
ATOM     16  C   UNL     1     -39.178 159.825   0.949  1.00  0.00    +0.031 A 
ATOM     17  C   UNL     1     -38.737 158.449   2.910  1.00  0.00    -0.060 C 
ATOM     18  C   UNL     1     -41.612 157.932   3.209  1.00  0.00    +0.045 C 
BRANCH  17  19
ATOM     19  C   UNL     1     -37.970 157.961   3.694  1.00  0.00    -0.040 C 
ATOM     20  C   UNL     1     -37.072 157.366   4.618  1.00  0.00    +0.135 A 
ATOM     21  C   UNL     1     -36.127 157.977   5.411  1.00  0.00    +0.151 A 
ATOM     22  N   UNL     1     -36.974 156.025   4.904  1.00  0.00    -0.205 N 
ATOM     23  N   UNL     1     -35.446 157.061   6.176  1.00  0.00    -0.234 NA
ATOM     24  N   UNL     1     -37.724 155.017   4.353  1.00  0.00    -0.174 NA
ATOM     25  C   UNL     1     -35.972 155.896   5.857  1.00  0.00    +0.154 A 
ATOM     26  C   UNL     1     -37.410 153.849   4.816  1.00  0.00    +0.134 C 
ATOM     27  C   UNL     1     -35.680 154.592   6.319  1.00  0.00    +0.051 C 
ATOM     28  C   UNL     1     -36.369 153.554   5.830  1.00  0.00    +0.026 C 
ENDBRANCH  17  19
ENDBRANCH   8  11
ENDBRANCH   1   7
BRANCH   5  29
ATOM     29  C   UNL     1     -38.173 164.848  -4.565  1.00  0.00    +0.416 C 
ATOM     30  F   UNL     1     -38.483 165.582  -5.669  1.00  0.00    -0.166 F 
ATOM     31  F   UNL     1     -36.833 165.063  -4.378  1.00  0.00    -0.166 F 
ATOM     32  F   UNL     1     -38.774 165.451  -3.503  1.00  0.00    -0.166 F 
ENDBRANCH   5  29
BRANCH   4  33
ATOM     33  C   UNL     1     -37.997 163.333  -7.206  1.00  0.00    +0.120 C 
BRANCH  33  34
ATOM     34  N   UNL     1     -37.819 162.371  -8.295  1.00  0.00    -0.297 NA
ATOM     35  C   UNL     1     -36.401 162.100  -8.619  1.00  0.00    +0.100 C 
ATOM     36  C   UNL     1     -38.572 162.797  -9.493  1.00  0.00    +0.100 C 
ATOM     37  C   UNL     1     -35.895 162.816  -9.891  1.00  0.00    +0.099 C 
ATOM     38  C   UNL     1     -38.061 162.138 -10.793  1.00  0.00    +0.099 C 
ATOM     39  N   UNL     1     -36.650 162.444 -11.104  1.00  0.00    -0.304 NA
ATOM     40  C   UNL     1     -36.522 163.473 -12.131  1.00  0.00    +0.105 C 
ENDBRANCH  33  34
ENDBRANCH   4  33
TORSDOF 6
ENDMDL
MODEL 4
REMARK VINA RESULT:   -12.385      4.963     13.249
REMARK INTER + INTRA:         -17.021
REMARK INTER:                 -16.781
REMARK INTRA:                  -0.240
REMARK UNBOUND:                -0.292
REMARK SMILES Cc1ccc(C(=O)Nc2ccc(CN3CCN(C)CC3)c(C(F)(F)F)c2)cc1C#Cc1cnc2cccnn12
REMARK SMILES IDX 9 1 10 2 11 3 12 4 21 5 26 6 8 7 6 8 7 9 5 11 2 12 3 13
REMARK SMILES IDX 28 14 4 15 27 16 29 17 1 18 30 19 31 20 32 21 39 22 33 23
REMARK SMILES IDX 38 24 34 25 37 26 35 27 36 28 22 29 23 30 24 31 25 32 13 33
REMARK SMILES IDX 14 34 15 35 20 36 16 37 19 38 17 39 18 40
REMARK H PARENT 8 10
ROOT
ATOM      1  C   UNL     1     -37.779 155.918   4.347  1.00  0.00    +0.042 A 
ATOM      2  C   UNL     1     -37.869 154.535   4.232  1.00  0.00    +0.026 A 
ATOM      3  C   UNL     1     -37.027 153.705   4.978  1.00  0.00    +0.008 A 
ATOM      4  C   UNL     1     -36.075 154.238   5.863  1.00  0.00    -0.022 A 
ATOM      5  C   UNL     1     -35.990 155.640   6.010  1.00  0.00    +0.062 A 
ATOM      6  C   UNL     1     -36.841 156.458   5.235  1.00  0.00    +0.039 A 
ENDROOT
BRANCH   1   7
ATOM      7  N   UNL     1     -38.586 156.826   3.630  1.00  0.00    -0.322 N 
ATOM      8  C   UNL     1     -38.173 157.743   2.678  1.00  0.00    +0.255 C 
ATOM      9  O   UNL     1     -37.023 157.978   2.332  1.00  0.00    -0.269 OA
ATOM     10  H   UNL     1     -39.561 156.850   3.894  1.00  0.00    +0.170 HD
BRANCH   8  11
ATOM     11  C   UNL     1     -39.272 158.538   2.061  1.00  0.00    +0.041 A 
ATOM     12  C   UNL     1     -41.293 160.071   0.846  1.00  0.00    -0.035 A 
ATOM     13  C   UNL     1     -41.611 159.114   1.824  1.00  0.00    +0.005 A 
ATOM     14  C   UNL     1     -39.947 160.241   0.470  1.00  0.00    +0.029 A 
ATOM     15  C   UNL     1     -40.610 158.349   2.426  1.00  0.00    +0.014 A 
ATOM     16  C   UNL     1     -38.945 159.473   1.074  1.00  0.00    +0.031 A 
ATOM     17  C   UNL     1     -39.570 161.195  -0.531  1.00  0.00    -0.060 C 
ATOM     18  C   UNL     1     -42.393 160.879   0.211  1.00  0.00    +0.045 C 
BRANCH  17  19
ATOM     19  C   UNL     1     -39.273 161.999  -1.371  1.00  0.00    -0.040 C 
ATOM     20  C   UNL     1     -38.920 162.935  -2.378  1.00  0.00    +0.135 A 
ATOM     21  C   UNL     1     -38.736 164.294  -2.260  1.00  0.00    +0.151 A 
ATOM     22  N   UNL     1     -38.687 162.651  -3.703  1.00  0.00    -0.205 N 
ATOM     23  N   UNL     1     -38.399 164.861  -3.465  1.00  0.00    -0.234 NA
ATOM     24  N   UNL     1     -38.752 161.415  -4.295  1.00  0.00    -0.174 NA
ATOM     25  C   UNL     1     -38.374 163.857  -4.317  1.00  0.00    +0.154 A 
ATOM     26  C   UNL     1     -38.482 161.453  -5.562  1.00  0.00    +0.134 C 
ATOM     27  C   UNL     1     -38.091 163.825  -5.701  1.00  0.00    +0.051 C 
ATOM     28  C   UNL     1     -38.133 162.657  -6.353  1.00  0.00    +0.026 C 
ENDBRANCH  17  19
ENDBRANCH   8  11
ENDBRANCH   1   7
BRANCH   5  29
ATOM     29  C   UNL     1     -35.003 156.310   6.947  1.00  0.00    +0.416 C 
ATOM     30  F   UNL     1     -34.908 155.725   8.174  1.00  0.00    -0.166 F 
ATOM     31  F   UNL     1     -35.356 157.606   7.215  1.00  0.00    -0.166 F 
ATOM     32  F   UNL     1     -33.742 156.389   6.443  1.00  0.00    -0.166 F 
ENDBRANCH   5  29
BRANCH   4  33
ATOM     33  C   UNL     1     -35.180 153.281   6.631  1.00  0.00    +0.120 C 
BRANCH  33  34
ATOM     34  N   UNL     1     -35.916 152.135   7.166  1.00  0.00    -0.297 NA
ATOM     35  C   UNL     1     -35.323 151.573   8.398  1.00  0.00    +0.100 C 
ATOM     36  C   UNL     1     -36.087 151.096   6.128  1.00  0.00    +0.100 C 
ATOM     37  C   UNL     1     -34.523 150.270   8.177  1.00  0.00    +0.099 C 
ATOM     38  C   UNL     1     -36.395 149.702   6.715  1.00  0.00    +0.099 C 
ATOM     39  N   UNL     1     -35.338 149.180   7.606  1.00  0.00    -0.304 NA
ATOM     40  C   UNL     1     -34.494 148.194   6.939  1.00  0.00    +0.105 C 
ENDBRANCH  33  34
ENDBRANCH   4  33
TORSDOF 6
ENDMDL
MODEL 5
REMARK VINA RESULT:   -11.620      1.943      2.365
REMARK INTER + INTRA:         -15.987
REMARK INTER:                 -16.030
REMARK INTRA:                   0.043
REMARK UNBOUND:                -0.292
REMARK SMILES Cc1ccc(C(=O)Nc2ccc(CN3CCN(C)CC3)c(C(F)(F)F)c2)cc1C#Cc1cnc2cccnn12
REMARK SMILES IDX 9 1 10 2 11 3 12 4 21 5 26 6 8 7 6 8 7 9 5 11 2 12 3 13
REMARK SMILES IDX 28 14 4 15 27 16 29 17 1 18 30 19 31 20 32 21 39 22 33 23
REMARK SMILES IDX 38 24 34 25 37 26 35 27 36 28 22 29 23 30 24 31 25 32 13 33
REMARK SMILES IDX 14 34 15 35 20 36 16 37 19 38 17 39 18 40
REMARK H PARENT 8 10
ROOT
ATOM      1  C   UNL     1     -38.840 162.484  -3.551  1.00  0.00    +0.042 A 
ATOM      2  C   UNL     1     -38.929 163.867  -3.662  1.00  0.00    +0.026 A 
ATOM      3  C   UNL     1     -38.391 164.526  -4.771  1.00  0.00    +0.008 A 
ATOM      4  C   UNL     1     -37.753 163.816  -5.802  1.00  0.00    -0.022 A 
ATOM      5  C   UNL     1     -37.679 162.409  -5.717  1.00  0.00    +0.062 A 
ATOM      6  C   UNL     1     -38.217 161.767  -4.579  1.00  0.00    +0.039 A 
ENDROOT
BRANCH   1   7
ATOM      7  N   UNL     1     -39.352 161.743  -2.465  1.00  0.00    -0.322 N 
ATOM      8  C   UNL     1     -38.820 160.590  -1.913  1.00  0.00    +0.255 C 
ATOM      9  O   UNL     1     -37.843 159.968  -2.307  1.00  0.00    -0.269 OA
ATOM     10  H   UNL     1     -40.241 162.056  -2.100  1.00  0.00    +0.170 HD
BRANCH   8  11
ATOM     11  C   UNL     1     -39.569 160.059  -0.739  1.00  0.00    +0.041 A 
ATOM     12  C   UNL     1     -40.913 159.027   1.505  1.00  0.00    -0.035 A 
ATOM     13  C   UNL     1     -41.590 159.829   0.572  1.00  0.00    +0.005 A 
ATOM     14  C   UNL     1     -39.544 158.760   1.310  1.00  0.00    +0.029 A 
ATOM     15  C   UNL     1     -40.924 160.346  -0.541  1.00  0.00    +0.014 A 
ATOM     16  C   UNL     1     -38.878 159.280   0.195  1.00  0.00    +0.031 A 
ATOM     17  C   UNL     1     -38.804 157.958   2.239  1.00  0.00    -0.060 C 
ATOM     18  C   UNL     1     -41.656 158.487   2.698  1.00  0.00    +0.045 C 
BRANCH  17  19
ATOM     19  C   UNL     1     -38.200 157.283   3.027  1.00  0.00    -0.040 C 
ATOM     20  C   UNL     1     -37.470 156.499   3.957  1.00  0.00    +0.135 A 
ATOM     21  C   UNL     1     -37.846 155.325   4.572  1.00  0.00    +0.151 A 
ATOM     22  N   UNL     1     -36.210 156.771   4.434  1.00  0.00    -0.205 N 
ATOM     23  N   UNL     1     -36.863 154.863   5.414  1.00  0.00    -0.234 NA
ATOM     24  N   UNL     1     -35.427 157.846   4.101  1.00  0.00    -0.174 NA
ATOM     25  C   UNL     1     -35.890 155.745   5.315  1.00  0.00    +0.154 A 
ATOM     26  C   UNL     1     -34.283 157.841   4.709  1.00  0.00    +0.134 C 
ATOM     27  C   UNL     1     -34.626 155.801   5.944  1.00  0.00    +0.051 C 
ATOM     28  C   UNL     1     -33.802 156.820   5.671  1.00  0.00    +0.026 C 
ENDBRANCH  17  19
ENDBRANCH   8  11
ENDBRANCH   1   7
BRANCH   5  29
ATOM     29  C   UNL     1     -37.021 161.554  -6.783  1.00  0.00    +0.416 C 
ATOM     30  F   UNL     1     -37.891 160.808  -7.520  1.00  0.00    -0.166 F 
ATOM     31  F   UNL     1     -36.161 160.636  -6.240  1.00  0.00    -0.166 F 
ATOM     32  F   UNL     1     -36.263 162.266  -7.660  1.00  0.00    -0.166 F 
ENDBRANCH   5  29
BRANCH   4  33
ATOM     33  C   UNL     1     -37.175 164.594  -6.971  1.00  0.00    +0.120 C 
BRANCH  33  34
ATOM     34  N   UNL     1     -38.182 164.910  -7.984  1.00  0.00    -0.297 NA
ATOM     35  C   UNL     1     -38.421 163.811  -8.944  1.00  0.00    +0.100 C 
ATOM     36  C   UNL     1     -37.842 166.169  -8.682  1.00  0.00    +0.100 C 
ATOM     37  C   UNL     1     -37.752 164.017 -10.322  1.00  0.00    +0.099 C 
ATOM     38  C   UNL     1     -38.546 166.310 -10.049  1.00  0.00    +0.099 C 
ATOM     39  N   UNL     1     -38.208 165.241 -11.010  1.00  0.00    -0.304 NA
ATOM     40  C   UNL     1     -37.227 165.678 -11.998  1.00  0.00    +0.105 C 
ENDBRANCH  33  34
ENDBRANCH   4  33
TORSDOF 6
ENDMDL
MODEL 6
REMARK VINA RESULT:   -11.075      3.175     12.377
REMARK INTER + INTRA:         -15.251
REMARK INTER:                 -14.432
REMARK INTRA:                  -0.819
REMARK UNBOUND:                -0.292
REMARK SMILES Cc1ccc(C(=O)Nc2ccc(CN3CCN(C)CC3)c(C(F)(F)F)c2)cc1C#Cc1cnc2cccnn12
REMARK SMILES IDX 9 1 10 2 11 3 12 4 21 5 26 6 8 7 6 8 7 9 5 11 2 12 3 13
REMARK SMILES IDX 28 14 4 15 27 16 29 17 1 18 30 19 31 20 32 21 39 22 33 23
REMARK SMILES IDX 38 24 34 25 37 26 35 27 36 28 22 29 23 30 24 31 25 32 13 33
REMARK SMILES IDX 14 34 15 35 20 36 16 37 19 38 17 39 18 40
REMARK H PARENT 8 10
ROOT
ATOM      1  C   UNL     1     -38.727 160.022  -0.145  1.00  0.00    +0.042 A 
ATOM      2  C   UNL     1     -37.650 159.274   0.317  1.00  0.00    +0.026 A 
ATOM      3  C   UNL     1     -37.794 158.430   1.423  1.00  0.00    +0.008 A 
ATOM      4  C   UNL     1     -39.024 158.310   2.093  1.00  0.00    -0.022 A 
ATOM      5  C   UNL     1     -40.134 159.043   1.618  1.00  0.00    +0.062 A 
ATOM      6  C   UNL     1     -39.959 159.899   0.508  1.00  0.00    +0.039 A 
ENDROOT
BRANCH   1   7
ATOM      7  N   UNL     1     -38.666 160.898  -1.249  1.00  0.00    -0.322 N 
ATOM      8  C   UNL     1     -38.968 160.605  -2.568  1.00  0.00    +0.255 C 
ATOM      9  O   UNL     1     -39.282 159.515  -3.027  1.00  0.00    -0.269 OA
ATOM     10  H   UNL     1     -38.296 161.819  -1.059  1.00  0.00    +0.170 HD
BRANCH   8  11
ATOM     11  C   UNL     1     -38.848 161.758  -3.505  1.00  0.00    +0.041 A 
ATOM     12  C   UNL     1     -38.611 163.880  -5.335  1.00  0.00    -0.035 A 
ATOM     13  C   UNL     1     -38.962 164.125  -3.997  1.00  0.00    +0.005 A 
ATOM     14  C   UNL     1     -38.396 162.553  -5.753  1.00  0.00    +0.029 A 
ATOM     15  C   UNL     1     -39.084 163.072  -3.087  1.00  0.00    +0.014 A 
ATOM     16  C   UNL     1     -38.520 161.499  -4.840  1.00  0.00    +0.031 A 
ATOM     17  C   UNL     1     -38.048 162.248  -7.109  1.00  0.00    -0.060 C 
ATOM     18  C   UNL     1     -38.491 165.034  -6.294  1.00  0.00    +0.045 C 
BRANCH  17  19
ATOM     19  C   UNL     1     -37.756 162.012  -8.249  1.00  0.00    -0.040 C 
ATOM     20  C   UNL     1     -37.407 161.713  -9.591  1.00  0.00    +0.135 A 
ATOM     21  C   UNL     1     -37.434 162.543 -10.690  1.00  0.00    +0.151 A 
ATOM     22  N   UNL     1     -36.960 160.501 -10.063  1.00  0.00    -0.205 N 
ATOM     23  N   UNL     1     -37.021 161.886 -11.825  1.00  0.00    -0.234 NA
ATOM     24  N   UNL     1     -36.769 159.361  -9.325  1.00  0.00    -0.174 NA
ATOM     25  C   UNL     1     -36.741 160.663 -11.425  1.00  0.00    +0.154 A 
ATOM     26  C   UNL     1     -36.340 158.369 -10.039  1.00  0.00    +0.134 C 
ATOM     27  C   UNL     1     -36.272 159.540 -12.143  1.00  0.00    +0.051 C 
ATOM     28  C   UNL     1     -36.061 158.388 -11.495  1.00  0.00    +0.026 C 
ENDBRANCH  17  19
ENDBRANCH   8  11
ENDBRANCH   1   7
BRANCH   5  29
ATOM     29  C   UNL     1     -41.503 158.972   2.265  1.00  0.00    +0.416 C 
ATOM     30  F   UNL     1     -41.960 157.706   2.476  1.00  0.00    -0.166 F 
ATOM     31  F   UNL     1     -42.466 159.555   1.483  1.00  0.00    -0.166 F 
ATOM     32  F   UNL     1     -41.577 159.626   3.455  1.00  0.00    -0.166 F 
ENDBRANCH   5  29
BRANCH   4  33
ATOM     33  C   UNL     1     -39.108 157.390   3.297  1.00  0.00    +0.120 C 
BRANCH  33  34
ATOM     34  N   UNL     1     -37.802 156.858   3.687  1.00  0.00    -0.297 NA
ATOM     35  C   UNL     1     -37.851 155.461   4.168  1.00  0.00    +0.100 C 
ATOM     36  C   UNL     1     -37.154 157.745   4.677  1.00  0.00    +0.100 C 
ATOM     37  C   UNL     1     -37.766 155.317   5.705  1.00  0.00    +0.099 C 
ATOM     38  C   UNL     1     -36.046 157.038   5.487  1.00  0.00    +0.099 C 
ATOM     39  N   UNL     1     -36.524 155.881   6.270  1.00  0.00    -0.304 NA
ATOM     40  C   UNL     1     -36.698 156.205   7.683  1.00  0.00    +0.105 C 
ENDBRANCH  33  34
ENDBRANCH   4  33
TORSDOF 6
ENDMDL
MODEL 7
REMARK VINA RESULT:   -11.006      4.981     12.555
REMARK INTER + INTRA:         -15.158
REMARK INTER:                 -14.728
REMARK INTRA:                  -0.429
REMARK UNBOUND:                -0.292
REMARK SMILES Cc1ccc(C(=O)Nc2ccc(CN3CCN(C)CC3)c(C(F)(F)F)c2)cc1C#Cc1cnc2cccnn12
REMARK SMILES IDX 9 1 10 2 11 3 12 4 21 5 26 6 8 7 6 8 7 9 5 11 2 12 3 13
REMARK SMILES IDX 28 14 4 15 27 16 29 17 1 18 30 19 31 20 32 21 39 22 33 23
REMARK SMILES IDX 38 24 34 25 37 26 35 27 36 28 22 29 23 30 24 31 25 32 13 33
REMARK SMILES IDX 14 34 15 35 20 36 16 37 19 38 17 39 18 40
REMARK H PARENT 8 10
ROOT
ATOM      1  C   UNL     1     -37.000 157.895   4.462  1.00  0.00    +0.042 A 
ATOM      2  C   UNL     1     -35.650 158.227   4.419  1.00  0.00    +0.026 A 
ATOM      3  C   UNL     1     -34.743 157.625   5.297  1.00  0.00    +0.008 A 
ATOM      4  C   UNL     1     -35.164 156.671   6.238  1.00  0.00    -0.022 A 
ATOM      5  C   UNL     1     -36.527 156.304   6.275  1.00  0.00    +0.062 A 
ATOM      6  C   UNL     1     -37.426 156.936   5.388  1.00  0.00    +0.039 A 
ENDROOT
BRANCH   1   7
ATOM      7  N   UNL     1     -37.980 158.456   3.616  1.00  0.00    -0.322 N 
ATOM      8  C   UNL     1     -38.533 157.887   2.482  1.00  0.00    +0.255 C 
ATOM      9  O   UNL     1     -38.225 156.819   1.969  1.00  0.00    -0.269 OA
ATOM     10  H   UNL     1     -38.254 159.405   3.831  1.00  0.00    +0.170 HD
BRANCH   8  11
ATOM     11  C   UNL     1     -39.583 158.711   1.819  1.00  0.00    +0.041 A 
ATOM     12  C   UNL     1     -41.509 160.297   0.521  1.00  0.00    -0.035 A 
ATOM     13  C   UNL     1     -41.893 159.349   1.484  1.00  0.00    +0.005 A 
ATOM     14  C   UNL     1     -40.144 160.431   0.203  1.00  0.00    +0.029 A 
ATOM     15  C   UNL     1     -40.939 158.558   2.127  1.00  0.00    +0.014 A 
ATOM     16  C   UNL     1     -39.189 159.636   0.847  1.00  0.00    +0.031 A 
ATOM     17  C   UNL     1     -39.700 161.374  -0.780  1.00  0.00    -0.060 C 
ATOM     18  C   UNL     1     -42.559 161.133  -0.158  1.00  0.00    +0.045 C 
BRANCH  17  19
ATOM     19  C   UNL     1     -39.346 162.170  -1.607  1.00  0.00    -0.040 C 
ATOM     20  C   UNL     1     -38.926 163.096  -2.596  1.00  0.00    +0.135 A 
ATOM     21  C   UNL     1     -38.686 164.446  -2.463  1.00  0.00    +0.151 A 
ATOM     22  N   UNL     1     -38.672 162.811  -3.917  1.00  0.00    -0.205 N 
ATOM     23  N   UNL     1     -38.294 165.005  -3.655  1.00  0.00    -0.234 NA
ATOM     24  N   UNL     1     -38.775 161.584  -4.520  1.00  0.00    -0.174 NA
ATOM     25  C   UNL     1     -38.291 164.006  -4.514  1.00  0.00    +0.154 A 
ATOM     26  C   UNL     1     -38.471 161.617  -5.779  1.00  0.00    +0.134 C 
ATOM     27  C   UNL     1     -37.973 163.971  -5.890  1.00  0.00    +0.051 C 
ATOM     28  C   UNL     1     -38.049 162.810  -6.552  1.00  0.00    +0.026 C 
ENDBRANCH  17  19
ENDBRANCH   8  11
ENDBRANCH   1   7
BRANCH   5  29
ATOM     29  C   UNL     1     -37.075 155.276   7.246  1.00  0.00    +0.416 C 
ATOM     30  F   UNL     1     -36.676 153.998   6.997  1.00  0.00    -0.166 F 
ATOM     31  F   UNL     1     -38.444 155.219   7.207  1.00  0.00    -0.166 F 
ATOM     32  F   UNL     1     -36.775 155.542   8.546  1.00  0.00    -0.166 F 
ENDBRANCH   5  29
BRANCH   4  33
ATOM     33  C   UNL     1     -34.131 156.068   7.174  1.00  0.00    +0.120 C 
BRANCH  33  34
ATOM     34  N   UNL     1     -33.390 154.968   6.554  1.00  0.00    -0.297 NA
ATOM     35  C   UNL     1     -33.678 154.800   5.113  1.00  0.00    +0.100 C 
ATOM     36  C   UNL     1     -33.610 153.710   7.297  1.00  0.00    +0.100 C 
ATOM     37  C   UNL     1     -34.630 153.626   4.791  1.00  0.00    +0.099 C 
ATOM     38  C   UNL     1     -33.290 152.451   6.462  1.00  0.00    +0.099 C 
ATOM     39  N   UNL     1     -34.110 152.319   5.241  1.00  0.00    -0.304 NA
ATOM     40  C   UNL     1     -35.195 151.358   5.407  1.00  0.00    +0.105 C 
ENDBRANCH  33  34
ENDBRANCH   4  33
TORSDOF 6
ENDMDL
MODEL 8
REMARK VINA RESULT:   -10.654      7.755     14.044
REMARK INTER + INTRA:         -14.682
REMARK INTER:                 -13.678
REMARK INTRA:                  -1.005
REMARK UNBOUND:                -0.292
REMARK SMILES Cc1ccc(C(=O)Nc2ccc(CN3CCN(C)CC3)c(C(F)(F)F)c2)cc1C#Cc1cnc2cccnn12
REMARK SMILES IDX 9 1 10 2 11 3 12 4 21 5 26 6 8 7 6 8 7 9 5 11 2 12 3 13
REMARK SMILES IDX 28 14 4 15 27 16 29 17 1 18 30 19 31 20 32 21 39 22 33 23
REMARK SMILES IDX 38 24 34 25 37 26 35 27 36 28 22 29 23 30 24 31 25 32 13 33
REMARK SMILES IDX 14 34 15 35 20 36 16 37 19 38 17 39 18 40
REMARK H PARENT 8 10
ROOT
ATOM      1  C   UNL     1     -37.805 151.115   4.987  1.00  0.00    +0.042 A 
ATOM      2  C   UNL     1     -36.813 150.148   5.110  1.00  0.00    +0.026 A 
ATOM      3  C   UNL     1     -37.112 148.796   4.914  1.00  0.00    +0.008 A 
ATOM      4  C   UNL     1     -38.412 148.377   4.584  1.00  0.00    -0.022 A 
ATOM      5  C   UNL     1     -39.423 149.350   4.428  1.00  0.00    +0.062 A 
ATOM      6  C   UNL     1     -39.101 150.708   4.646  1.00  0.00    +0.039 A 
ENDROOT
BRANCH   1   7
ATOM      7  N   UNL     1     -37.591 152.497   5.172  1.00  0.00    -0.322 N 
ATOM      8  C   UNL     1     -36.987 153.114   6.254  1.00  0.00    +0.255 C 
ATOM      9  O   UNL     1     -36.587 152.577   7.278  1.00  0.00    -0.269 OA
ATOM     10  H   UNL     1     -37.983 153.101   4.462  1.00  0.00    +0.170 HD
BRANCH   8  11
ATOM     11  C   UNL     1     -36.866 154.595   6.139  1.00  0.00    +0.041 A 
ATOM     12  C   UNL     1     -36.680 157.386   5.856  1.00  0.00    -0.035 A 
ATOM     13  C   UNL     1     -36.189 156.750   7.007  1.00  0.00    +0.005 A 
ATOM     14  C   UNL     1     -37.283 156.607   4.850  1.00  0.00    +0.029 A 
ATOM     15  C   UNL     1     -36.283 155.364   7.152  1.00  0.00    +0.014 A 
ATOM     16  C   UNL     1     -37.378 155.219   4.998  1.00  0.00    +0.031 A 
ATOM     17  C   UNL     1     -37.811 157.208   3.661  1.00  0.00    -0.060 C 
ATOM     18  C   UNL     1     -36.568 158.882   5.729  1.00  0.00    +0.045 C 
BRANCH  17  19
ATOM     19  C   UNL     1     -38.248 157.729   2.672  1.00  0.00    -0.040 C 
ATOM     20  C   UNL     1     -38.782 158.347   1.512  1.00  0.00    +0.135 A 
ATOM     21  C   UNL     1     -38.186 158.526   0.283  1.00  0.00    +0.151 A 
ATOM     22  N   UNL     1     -40.034 158.902   1.392  1.00  0.00    -0.205 N 
ATOM     23  N   UNL     1     -39.026 159.172  -0.592  1.00  0.00    -0.234 NA
ATOM     24  N   UNL     1     -40.996 158.960   2.367  1.00  0.00    -0.174 NA
ATOM     25  C   UNL     1     -40.129 159.388   0.094  1.00  0.00    +0.154 A 
ATOM     26  C   UNL     1     -42.081 159.543   1.966  1.00  0.00    +0.134 C 
ATOM     27  C   UNL     1     -41.341 160.013  -0.277  1.00  0.00    +0.051 C 
ATOM     28  C   UNL     1     -42.331 160.109   0.619  1.00  0.00    +0.026 C 
ENDBRANCH  17  19
ENDBRANCH   8  11
ENDBRANCH   1   7
BRANCH   5  29
ATOM     29  C   UNL     1     -40.853 148.999   4.062  1.00  0.00    +0.416 C 
ATOM     30  F   UNL     1     -40.982 148.329   2.883  1.00  0.00    -0.166 F 
ATOM     31  F   UNL     1     -41.627 150.118   3.905  1.00  0.00    -0.166 F 
ATOM     32  F   UNL     1     -41.492 148.263   5.012  1.00  0.00    -0.166 F 
ENDBRANCH   5  29
BRANCH   4  33
ATOM     33  C   UNL     1     -38.672 146.893   4.401  1.00  0.00    +0.120 C 
BRANCH  33  34
ATOM     34  N   UNL     1     -37.871 146.314   3.322  1.00  0.00    -0.297 NA
ATOM     35  C   UNL     1     -38.124 146.929   2.001  1.00  0.00    +0.100 C 
ATOM     36  C   UNL     1     -38.045 144.847   3.274  1.00  0.00    +0.100 C 
ATOM     37  C   UNL     1     -39.014 146.078   1.067  1.00  0.00    +0.099 C 
ATOM     38  C   UNL     1     -37.651 144.236   1.911  1.00  0.00    +0.099 C 
ATOM     39  N   UNL     1     -38.442 144.749   0.774  1.00  0.00    -0.304 NA
ATOM     40  C   UNL     1     -39.483 143.815   0.361  1.00  0.00    +0.105 C 
ENDBRANCH  33  34
ENDBRANCH   4  33
TORSDOF 6
ENDMDL
MODEL 9
REMARK VINA RESULT:   -10.605      7.557     14.729
REMARK INTER + INTRA:         -14.616
REMARK INTER:                 -13.692
REMARK INTRA:                  -0.924
REMARK UNBOUND:                -0.292
REMARK SMILES Cc1ccc(C(=O)Nc2ccc(CN3CCN(C)CC3)c(C(F)(F)F)c2)cc1C#Cc1cnc2cccnn12
REMARK SMILES IDX 9 1 10 2 11 3 12 4 21 5 26 6 8 7 6 8 7 9 5 11 2 12 3 13
REMARK SMILES IDX 28 14 4 15 27 16 29 17 1 18 30 19 31 20 32 21 39 22 33 23
REMARK SMILES IDX 38 24 34 25 37 26 35 27 36 28 22 29 23 30 24 31 25 32 13 33
REMARK SMILES IDX 14 34 15 35 20 36 16 37 19 38 17 39 18 40
REMARK H PARENT 8 10
ROOT
ATOM      1  C   UNL     1     -38.227 151.352   5.376  1.00  0.00    +0.042 A 
ATOM      2  C   UNL     1     -37.706 150.347   6.184  1.00  0.00    +0.026 A 
ATOM      3  C   UNL     1     -38.076 149.014   5.985  1.00  0.00    +0.008 A 
ATOM      4  C   UNL     1     -38.976 148.651   4.968  1.00  0.00    -0.022 A 
ATOM      5  C   UNL     1     -39.492 149.657   4.123  1.00  0.00    +0.062 A 
ATOM      6  C   UNL     1     -39.115 150.999   4.353  1.00  0.00    +0.039 A 
ENDROOT
BRANCH   1   7
ATOM      7  N   UNL     1     -37.910 152.720   5.511  1.00  0.00    -0.322 N 
ATOM      8  C   UNL     1     -36.649 153.291   5.515  1.00  0.00    +0.255 C 
ATOM      9  O   UNL     1     -35.575 152.705   5.467  1.00  0.00    -0.269 OA
ATOM     10  H   UNL     1     -38.691 153.337   5.691  1.00  0.00    +0.170 HD
BRANCH   8  11
ATOM     11  C   UNL     1     -36.637 154.777   5.633  1.00  0.00    +0.041 A 
ATOM     12  C   UNL     1     -36.664 157.584   5.790  1.00  0.00    -0.035 A 
ATOM     13  C   UNL     1     -36.037 156.818   6.786  1.00  0.00    +0.005 A 
ATOM     14  C   UNL     1     -37.295 156.926   4.718  1.00  0.00    +0.029 A 
ATOM     15  C   UNL     1     -36.026 155.423   6.712  1.00  0.00    +0.014 A 
ATOM     16  C   UNL     1     -37.284 155.528   4.646  1.00  0.00    +0.031 A 
ATOM     17  C   UNL     1     -37.959 157.660   3.682  1.00  0.00    -0.060 C 
ATOM     18  C   UNL     1     -36.664 159.086   5.898  1.00  0.00    +0.045 C 
BRANCH  17  19
ATOM     19  C   UNL     1     -38.511 158.292   2.823  1.00  0.00    -0.040 C 
ATOM     20  C   UNL     1     -39.151 159.029   1.794  1.00  0.00    +0.135 A 
ATOM     21  C   UNL     1     -40.105 160.015   1.910  1.00  0.00    +0.151 A 
ATOM     22  N   UNL     1     -38.932 158.894   0.443  1.00  0.00    -0.205 N 
ATOM     23  N   UNL     1     -40.485 160.493   0.679  1.00  0.00    -0.234 NA
ATOM     24  N   UNL     1     -38.057 158.026  -0.158  1.00  0.00    -0.174 NA
ATOM     25  C   UNL     1     -39.768 159.807  -0.187  1.00  0.00    +0.154 A 
ATOM     26  C   UNL     1     -38.064 158.122  -1.449  1.00  0.00    +0.134 C 
ATOM     27  C   UNL     1     -39.725 159.859  -1.598  1.00  0.00    +0.051 C 
ATOM     28  C   UNL     1     -38.895 159.043  -2.260  1.00  0.00    +0.026 C 
ENDBRANCH  17  19
ENDBRANCH   8  11
ENDBRANCH   1   7
BRANCH   5  29
ATOM     29  C   UNL     1     -40.459 149.364   2.992  1.00  0.00    +0.416 C 
ATOM     30  F   UNL     1     -41.588 148.705   3.375  1.00  0.00    -0.166 F 
ATOM     31  F   UNL     1     -39.898 148.554   2.041  1.00  0.00    -0.166 F 
ATOM     32  F   UNL     1     -40.856 150.475   2.314  1.00  0.00    -0.166 F 
ENDBRANCH   5  29
BRANCH   4  33
ATOM     33  C   UNL     1     -39.349 147.187   4.817  1.00  0.00    +0.120 C 
BRANCH  33  34
ATOM     34  N   UNL     1     -39.919 146.626   6.043  1.00  0.00    -0.297 NA
ATOM     35  C   UNL     1     -39.723 145.166   6.173  1.00  0.00    +0.100 C 
ATOM     36  C   UNL     1     -41.347 146.990   6.166  1.00  0.00    +0.100 C 
ATOM     37  C   UNL     1     -40.979 144.328   5.846  1.00  0.00    +0.099 C 
ATOM     38  C   UNL     1     -42.125 146.064   7.125  1.00  0.00    +0.099 C 
ATOM     39  N   UNL     1     -42.129 144.645   6.716  1.00  0.00    -0.304 NA
ATOM     40  C   UNL     1     -43.384 144.259   6.079  1.00  0.00    +0.105 C 
ENDBRANCH  33  34
ENDBRANCH   4  33
TORSDOF 6
ENDMDL
MODEL 10
REMARK VINA RESULT:   -10.516      7.840     15.039
REMARK INTER + INTRA:         -14.497
REMARK INTER:                 -13.498
REMARK INTRA:                  -0.999
REMARK UNBOUND:                -0.292
REMARK SMILES Cc1ccc(C(=O)Nc2ccc(CN3CCN(C)CC3)c(C(F)(F)F)c2)cc1C#Cc1cnc2cccnn12
REMARK SMILES IDX 9 1 10 2 11 3 12 4 21 5 26 6 8 7 6 8 7 9 5 11 2 12 3 13
REMARK SMILES IDX 28 14 4 15 27 16 29 17 1 18 30 19 31 20 32 21 39 22 33 23
REMARK SMILES IDX 38 24 34 25 37 26 35 27 36 28 22 29 23 30 24 31 25 32 13 33
REMARK SMILES IDX 14 34 15 35 20 36 16 37 19 38 17 39 18 40
REMARK H PARENT 8 10
ROOT
ATOM      1  C   UNL     1     -37.795 151.094   4.984  1.00  0.00    +0.042 A 
ATOM      2  C   UNL     1     -36.803 150.125   5.092  1.00  0.00    +0.026 A 
ATOM      3  C   UNL     1     -37.108 148.773   4.907  1.00  0.00    +0.008 A 
ATOM      4  C   UNL     1     -38.415 148.356   4.605  1.00  0.00    -0.022 A 
ATOM      5  C   UNL     1     -39.427 149.330   4.465  1.00  0.00    +0.062 A 
ATOM      6  C   UNL     1     -39.098 150.688   4.671  1.00  0.00    +0.039 A 
ENDROOT
BRANCH   1   7
ATOM      7  N   UNL     1     -37.574 152.476   5.158  1.00  0.00    -0.322 N 
ATOM      8  C   UNL     1     -36.987 153.100   6.245  1.00  0.00    +0.255 C 
ATOM      9  O   UNL     1     -36.610 152.571   7.283  1.00  0.00    -0.269 OA
ATOM     10  H   UNL     1     -37.949 153.076   4.436  1.00  0.00    +0.170 HD
BRANCH   8  11
ATOM     11  C   UNL     1     -36.853 154.579   6.118  1.00  0.00    +0.041 A 
ATOM     12  C   UNL     1     -36.644 157.366   5.811  1.00  0.00    -0.035 A 
ATOM     13  C   UNL     1     -36.140 156.733   6.959  1.00  0.00    +0.005 A 
ATOM     14  C   UNL     1     -37.272 156.586   4.821  1.00  0.00    +0.029 A 
ATOM     15  C   UNL     1     -36.245 155.349   7.116  1.00  0.00    +0.014 A 
ATOM     16  C   UNL     1     -37.378 155.200   4.981  1.00  0.00    +0.031 A 
ATOM     17  C   UNL     1     -37.814 157.184   3.637  1.00  0.00    -0.060 C 
ATOM     18  C   UNL     1     -36.519 158.860   5.671  1.00  0.00    +0.045 C 
BRANCH  17  19
ATOM     19  C   UNL     1     -38.262 157.702   2.651  1.00  0.00    -0.040 C 
ATOM     20  C   UNL     1     -38.809 158.317   1.496  1.00  0.00    +0.135 A 
ATOM     21  C   UNL     1     -38.229 158.489   0.259  1.00  0.00    +0.151 A 
ATOM     22  N   UNL     1     -40.062 158.874   1.390  1.00  0.00    -0.205 N 
ATOM     23  N   UNL     1     -39.078 159.134  -0.608  1.00  0.00    -0.234 NA
ATOM     24  N   UNL     1     -41.011 158.938   2.378  1.00  0.00    -0.174 NA
ATOM     25  C   UNL     1     -40.173 159.355   0.091  1.00  0.00    +0.154 A 
ATOM     26  C   UNL     1     -42.100 159.522   1.988  1.00  0.00    +0.134 C 
ATOM     27  C   UNL     1     -41.388 159.982  -0.266  1.00  0.00    +0.051 C 
ATOM     28  C   UNL     1     -42.365 160.084   0.642  1.00  0.00    +0.026 C 
ENDBRANCH  17  19
ENDBRANCH   8  11
ENDBRANCH   1   7
BRANCH   5  29
ATOM     29  C   UNL     1     -40.864 148.980   4.128  1.00  0.00    +0.416 C 
ATOM     30  F   UNL     1     -41.006 148.180   3.035  1.00  0.00    -0.166 F 
ATOM     31  F   UNL     1     -41.603 150.095   3.832  1.00  0.00    -0.166 F 
ATOM     32  F   UNL     1     -41.532 148.381   5.151  1.00  0.00    -0.166 F 
ENDBRANCH   5  29
BRANCH   4  33
ATOM     33  C   UNL     1     -38.682 146.871   4.433  1.00  0.00    +0.120 C 
BRANCH  33  34
ATOM     34  N   UNL     1     -38.414 146.110   5.655  1.00  0.00    -0.297 NA
ATOM     35  C   UNL     1     -38.043 144.701   5.405  1.00  0.00    +0.100 C 
ATOM     36  C   UNL     1     -39.555 146.209   6.590  1.00  0.00    +0.100 C 
ATOM     37  C   UNL     1     -39.182 143.691   5.670  1.00  0.00    +0.099 C 
ATOM     38  C   UNL     1     -39.573 145.078   7.641  1.00  0.00    +0.099 C 
ATOM     39  N   UNL     1     -39.672 143.724   7.062  1.00  0.00    -0.304 NA
ATOM     40  C   UNL     1     -41.026 143.186   7.148  1.00  0.00    +0.105 C 
ENDBRANCH  33  34
ENDBRANCH   4  33
TORSDOF 6
ENDMDL
