MODEL 1
REMARK VINA RESULT:    -9.096      0.000      0.000
REMARK INTER + INTRA:         -13.444
REMARK INTER:                 -12.287
REMARK INTRA:                  -1.157
REMARK UNBOUND:                -1.157
REMARK SMILES CNC(=O)c1cc(Oc2ccc(NC(=O)Nc3ccc(Cl)c(C(F)(F)F)c3)c(F)c2)ccn1
REMARK SMILES IDX 9 1 10 2 11 3 12 4 28 5 29 6 30 7 8 8 7 9 5 10 6 11 33 12
REMARK SMILES IDX 32 13 31 14 3 15 2 16 4 17 1 18 13 20 14 21 15 22 16 23
REMARK SMILES IDX 17 26 18 27 27 28 19 29 22 30 20 31 21 32 23 33 24 34 25 35
REMARK SMILES IDX 26 36
REMARK H PARENT 2 19 13 24 16 25
ROOT
ATOM      1  C   UNL     1     -13.698  -0.929  -9.826  1.00  0.00    +0.130 A 
ATOM      2  C   UNL     1     -12.362  -1.291  -9.994  1.00  0.00    +0.049 A 
ATOM      3  C   UNL     1     -11.484  -0.434 -10.663  1.00  0.00    +0.033 A 
ATOM      4  C   UNL     1     -11.936   0.792 -11.168  1.00  0.00    +0.079 A 
ATOM      5  C   UNL     1     -13.269   1.162 -10.940  1.00  0.00    +0.150 A 
ATOM      6  F   UNL     1     -13.718   2.382 -11.265  1.00  0.00    -0.205 F 
ATOM      7  C   UNL     1     -14.152   0.309 -10.278  1.00  0.00    +0.088 A 
ENDROOT
BRANCH   1   8
ATOM      8  O   UNL     1     -14.507  -1.796  -9.127  1.00  0.00    -0.457 OA
BRANCH   8   9
ATOM      9  C   UNL     1     -14.876  -1.411  -7.859  1.00  0.00    +0.131 A 
ATOM     10  C   UNL     1     -16.417  -0.610  -6.242  1.00  0.00    +0.131 A 
ATOM     11  C   UNL     1     -16.145  -0.922  -7.566  1.00  0.00    +0.081 A 
ATOM     12  N   UNL     1     -15.520  -0.758  -5.222  1.00  0.00    -0.251 NA
ATOM     13  C   UNL     1     -14.310  -1.257  -5.552  1.00  0.00    +0.116 A 
ATOM     14  C   UNL     1     -13.947  -1.603  -6.842  1.00  0.00    +0.067 A 
BRANCH  10  15
ATOM     15  C   UNL     1     -17.768  -0.082  -5.865  1.00  0.00    +0.269 C 
ATOM     16  N   UNL     1     -18.769  -0.398  -6.758  1.00  0.00    -0.354 N 
ATOM     17  O   UNL     1     -17.939   0.568  -4.840  1.00  0.00    -0.268 OA
ATOM     18  C   UNL     1     -20.151  -0.097  -6.504  1.00  0.00    +0.143 C 
ATOM     19  H   UNL     1     -18.508  -1.026  -7.514  1.00  0.00    +0.163 HD
ENDBRANCH  10  15
ENDBRANCH   8   9
ENDBRANCH   1   8
BRANCH   4  20
ATOM     20  N   UNL     1     -10.996   1.611 -11.831  1.00  0.00    -0.305 N 
ATOM     21  C   UNL     1     -10.946   1.807 -13.206  1.00  0.00    +0.323 C 
ATOM     22  O   UNL     1     -11.554   1.137 -14.027  1.00  0.00    -0.248 OA
ATOM     23  N   UNL     1     -10.072   2.844 -13.498  1.00  0.00    -0.308 N 
ATOM     24  H   UNL     1     -10.111   1.749 -11.364  1.00  0.00    +0.171 HD
ATOM     25  H   UNL     1      -9.870   3.457 -12.721  1.00  0.00    +0.171 HD
BRANCH  23  26
ATOM     26  C   UNL     1      -9.650   3.274 -14.773  1.00  0.00    +0.043 A 
ATOM     27  C   UNL     1      -8.551   2.746 -15.446  1.00  0.00    +0.028 A 
ATOM     28  C   UNL     1     -10.376   4.309 -15.375  1.00  0.00    +0.040 A 
ATOM     29  C   UNL     1      -8.192   3.235 -16.706  1.00  0.00    +0.023 A 
ATOM     30  C   UNL     1     -10.027   4.815 -16.645  1.00  0.00    +0.076 A 
ATOM     31  C   UNL     1      -8.924   4.263 -17.304  1.00  0.00    +0.053 A 
ATOM     32 Cl   UNL     1      -8.414   4.811 -18.858  1.00  0.00    -0.084 Cl
BRANCH  30  33
ATOM     33  C   UNL     1     -10.834   5.925 -17.259  1.00  0.00    +0.417 C 
ATOM     34  F   UNL     1     -11.886   6.310 -16.476  1.00  0.00    -0.166 F 
ATOM     35  F   UNL     1     -10.113   7.060 -17.468  1.00  0.00    -0.166 F 
ATOM     36  F   UNL     1     -11.386   5.589 -18.457  1.00  0.00    -0.166 F 
ENDBRANCH  30  33
ENDBRANCH  23  26
ENDBRANCH   4  20
TORSDOF 6
ENDMDL
MODEL 2
REMARK VINA RESULT:    -8.817      2.444      3.789
REMARK INTER + INTRA:         -13.067
REMARK INTER:                 -12.496
REMARK INTRA:                  -0.570
REMARK UNBOUND:                -1.157
REMARK SMILES CNC(=O)c1cc(Oc2ccc(NC(=O)Nc3ccc(Cl)c(C(F)(F)F)c3)c(F)c2)ccn1
REMARK SMILES IDX 9 1 10 2 11 3 12 4 28 5 29 6 30 7 8 8 7 9 5 10 6 11 33 12
REMARK SMILES IDX 32 13 31 14 3 15 2 16 4 17 1 18 13 20 14 21 15 22 16 23
REMARK SMILES IDX 17 26 18 27 27 28 19 29 22 30 20 31 21 32 23 33 24 34 25 35
REMARK SMILES IDX 26 36
REMARK H PARENT 2 19 13 24 16 25
ROOT
ATOM      1  C   UNL     1     -14.058  -0.431  -9.823  1.00  0.00    +0.130 A 
ATOM      2  C   UNL     1     -12.716  -0.806  -9.802  1.00  0.00    +0.049 A 
ATOM      3  C   UNL     1     -11.764  -0.036 -10.478  1.00  0.00    +0.033 A 
ATOM      4  C   UNL     1     -12.149   1.113 -11.180  1.00  0.00    +0.079 A 
ATOM      5  C   UNL     1     -13.495   1.504 -11.141  1.00  0.00    +0.150 A 
ATOM      6  F   UNL     1     -13.896   2.671 -11.663  1.00  0.00    -0.205 F 
ATOM      7  C   UNL     1     -14.450   0.739 -10.473  1.00  0.00    +0.088 A 
ENDROOT
BRANCH   1   8
ATOM      8  O   UNL     1     -14.943  -1.205  -9.109  1.00  0.00    -0.457 OA
BRANCH   8   9
ATOM      9  C   UNL     1     -14.462  -2.392  -8.606  1.00  0.00    +0.131 A 
ATOM     10  C   UNL     1     -13.522  -4.561  -8.802  1.00  0.00    +0.131 A 
ATOM     11  C   UNL     1     -14.030  -3.431  -9.424  1.00  0.00    +0.081 A 
ATOM     12  N   UNL     1     -13.420  -4.708  -7.447  1.00  0.00    -0.251 NA
ATOM     13  C   UNL     1     -13.832  -3.665  -6.696  1.00  0.00    +0.116 A 
ATOM     14  C   UNL     1     -14.347  -2.494  -7.223  1.00  0.00    +0.067 A 
BRANCH  10  15
ATOM     15  C   UNL     1     -13.038  -5.712  -9.631  1.00  0.00    +0.269 C 
ATOM     16  N   UNL     1     -12.246  -6.609  -8.947  1.00  0.00    -0.354 N 
ATOM     17  O   UNL     1     -13.344  -5.824 -10.813  1.00  0.00    -0.268 OA
ATOM     18  C   UNL     1     -11.798  -7.843  -9.532  1.00  0.00    +0.143 C 
ATOM     19  H   UNL     1     -12.154  -6.448  -7.947  1.00  0.00    +0.163 HD
ENDBRANCH  10  15
ENDBRANCH   8   9
ENDBRANCH   1   8
BRANCH   4  20
ATOM     20  N   UNL     1     -11.137   1.846 -11.838  1.00  0.00    -0.305 N 
ATOM     21  C   UNL     1     -11.077   2.056 -13.211  1.00  0.00    +0.323 C 
ATOM     22  O   UNL     1     -11.754   1.462 -14.036  1.00  0.00    -0.248 OA
ATOM     23  N   UNL     1     -10.107   3.006 -13.495  1.00  0.00    -0.308 N 
ATOM     24  H   UNL     1     -10.240   1.888 -11.377  1.00  0.00    +0.171 HD
ATOM     25  H   UNL     1      -9.840   3.585 -12.711  1.00  0.00    +0.171 HD
BRANCH  23  26
ATOM     26  C   UNL     1      -9.654   3.411 -14.766  1.00  0.00    +0.043 A 
ATOM     27  C   UNL     1      -8.498   2.923 -15.371  1.00  0.00    +0.028 A 
ATOM     28  C   UNL     1     -10.409   4.380 -15.440  1.00  0.00    +0.040 A 
ATOM     29  C   UNL     1      -8.110   3.385 -16.633  1.00  0.00    +0.023 A 
ATOM     30  C   UNL     1     -10.032   4.857 -16.713  1.00  0.00    +0.076 A 
ATOM     31  C   UNL     1      -8.872   4.345 -17.302  1.00  0.00    +0.053 A 
ATOM     32 Cl   UNL     1      -8.324   4.863 -18.854  1.00  0.00    -0.084 Cl
BRANCH  30  33
ATOM     33  C   UNL     1     -10.872   5.895 -17.405  1.00  0.00    +0.417 C 
ATOM     34  F   UNL     1     -11.989   6.231 -16.693  1.00  0.00    -0.166 F 
ATOM     35  F   UNL     1     -10.214   7.069 -17.608  1.00  0.00    -0.166 F 
ATOM     36  F   UNL     1     -11.332   5.491 -18.621  1.00  0.00    -0.166 F 
ENDBRANCH  30  33
ENDBRANCH  23  26
ENDBRANCH   4  20
TORSDOF 6
ENDMDL
MODEL 3
REMARK VINA RESULT:    -8.787      7.724     10.303
REMARK INTER + INTRA:         -13.025
REMARK INTER:                 -12.257
REMARK INTRA:                  -0.768
REMARK UNBOUND:                -1.157
REMARK SMILES CNC(=O)c1cc(Oc2ccc(NC(=O)Nc3ccc(Cl)c(C(F)(F)F)c3)c(F)c2)ccn1
REMARK SMILES IDX 9 1 10 2 11 3 12 4 28 5 29 6 30 7 8 8 7 9 5 10 6 11 33 12
REMARK SMILES IDX 32 13 31 14 3 15 2 16 4 17 1 18 13 20 14 21 15 22 16 23
REMARK SMILES IDX 17 26 18 27 27 28 19 29 22 30 20 31 21 32 23 33 24 34 25 35
REMARK SMILES IDX 26 36
REMARK H PARENT 2 19 13 24 16 25
ROOT
ATOM      1  C   UNL     1      -7.653  -0.301 -14.589  1.00  0.00    +0.130 A 
ATOM      2  C   UNL     1      -8.091  -0.269 -15.913  1.00  0.00    +0.049 A 
ATOM      3  C   UNL     1      -8.763   0.856 -16.399  1.00  0.00    +0.033 A 
ATOM      4  C   UNL     1      -9.002   1.956 -15.565  1.00  0.00    +0.079 A 
ATOM      5  C   UNL     1      -8.504   1.926 -14.255  1.00  0.00    +0.150 A 
ATOM      6  F   UNL     1      -8.568   3.004 -13.461  1.00  0.00    -0.205 F 
ATOM      7  C   UNL     1      -7.837   0.806 -13.762  1.00  0.00    +0.088 A 
ENDROOT
BRANCH   1   8
ATOM      8  O   UNL     1      -6.963  -1.418 -14.177  1.00  0.00    -0.457 OA
BRANCH   8   9
ATOM      9  C   UNL     1      -5.922  -1.833 -14.976  1.00  0.00    +0.131 A 
ATOM     10  C   UNL     1      -4.092  -1.476 -16.443  1.00  0.00    +0.131 A 
ATOM     11  C   UNL     1      -5.143  -0.945 -15.710  1.00  0.00    +0.081 A 
ATOM     12  N   UNL     1      -3.781  -2.806 -16.479  1.00  0.00    -0.251 NA
ATOM     13  C   UNL     1      -4.552  -3.626 -15.733  1.00  0.00    +0.116 A 
ATOM     14  C   UNL     1      -5.617  -3.191 -14.965  1.00  0.00    +0.067 A 
BRANCH  10  15
ATOM     15  C   UNL     1      -3.216  -0.568 -17.252  1.00  0.00    +0.269 C 
ATOM     16  N   UNL     1      -3.487  -0.576 -18.603  1.00  0.00    -0.354 N 
ATOM     17  O   UNL     1      -2.345   0.117 -16.727  1.00  0.00    -0.268 OA
ATOM     18  C   UNL     1      -2.847   0.324 -19.522  1.00  0.00    +0.143 C 
ATOM     19  H   UNL     1      -4.301  -1.114 -18.890  1.00  0.00    +0.163 HD
ENDBRANCH  10  15
ENDBRANCH   8   9
ENDBRANCH   1   8
BRANCH   4  20
ATOM     20  N   UNL     1      -9.685   3.061 -16.121  1.00  0.00    -0.305 N 
ATOM     21  C   UNL     1      -9.068   4.157 -16.713  1.00  0.00    +0.323 C 
ATOM     22  O   UNL     1      -7.875   4.411 -16.633  1.00  0.00    -0.248 OA
ATOM     23  N   UNL     1     -10.017   4.931 -17.363  1.00  0.00    -0.308 N 
ATOM     24  H   UNL     1     -10.602   3.258 -15.747  1.00  0.00    +0.171 HD
ATOM     25  H   UNL     1     -10.884   4.455 -17.565  1.00  0.00    +0.171 HD
BRANCH  23  26
ATOM     26  C   UNL     1      -9.822   6.183 -17.980  1.00  0.00    +0.043 A 
ATOM     27  C   UNL     1      -9.389   7.322 -17.305  1.00  0.00    +0.028 A 
ATOM     28  C   UNL     1     -10.106   6.278 -19.349  1.00  0.00    +0.040 A 
ATOM     29  C   UNL     1      -9.229   8.532 -17.989  1.00  0.00    +0.023 A 
ATOM     30  C   UNL     1      -9.951   7.490 -20.054  1.00  0.00    +0.076 A 
ATOM     31  C   UNL     1      -9.507   8.617 -19.355  1.00  0.00    +0.053 A 
ATOM     32 Cl   UNL     1      -9.287  10.145 -20.124  1.00  0.00    -0.084 Cl
BRANCH  30  33
ATOM     33  C   UNL     1     -10.263   7.548 -21.523  1.00  0.00    +0.417 C 
ATOM     34  F   UNL     1     -10.706   6.354 -22.018  1.00  0.00    -0.166 F 
ATOM     35  F   UNL     1     -11.241   8.444 -21.828  1.00  0.00    -0.166 F 
ATOM     36  F   UNL     1      -9.185   7.873 -22.289  1.00  0.00    -0.166 F 
ENDBRANCH  30  33
ENDBRANCH  23  26
ENDBRANCH   4  20
TORSDOF 6
ENDMDL
MODEL 4
REMARK VINA RESULT:    -8.720      6.802      8.079
REMARK INTER + INTRA:         -12.935
REMARK INTER:                 -11.943
REMARK INTRA:                  -0.993
REMARK UNBOUND:                -1.157
REMARK SMILES CNC(=O)c1cc(Oc2ccc(NC(=O)Nc3ccc(Cl)c(C(F)(F)F)c3)c(F)c2)ccn1
REMARK SMILES IDX 9 1 10 2 11 3 12 4 28 5 29 6 30 7 8 8 7 9 5 10 6 11 33 12
REMARK SMILES IDX 32 13 31 14 3 15 2 16 4 17 1 18 13 20 14 21 15 22 16 23
REMARK SMILES IDX 17 26 18 27 27 28 19 29 22 30 20 31 21 32 23 33 24 34 25 35
REMARK SMILES IDX 26 36
REMARK H PARENT 2 19 13 24 16 25
ROOT
ATOM      1  C   UNL     1      -8.175  -0.230 -14.195  1.00  0.00    +0.130 A 
ATOM      2  C   UNL     1      -9.019   0.630 -13.492  1.00  0.00    +0.049 A 
ATOM      3  C   UNL     1      -9.607   1.719 -14.143  1.00  0.00    +0.033 A 
ATOM      4  C   UNL     1      -9.355   1.955 -15.500  1.00  0.00    +0.079 A 
ATOM      5  C   UNL     1      -8.549   1.047 -16.201  1.00  0.00    +0.150 A 
ATOM      6  F   UNL     1      -8.396   1.135 -17.530  1.00  0.00    -0.205 F 
ATOM      7  C   UNL     1      -7.956  -0.038 -15.558  1.00  0.00    +0.088 A 
ENDROOT
BRANCH   1   8
ATOM      8  O   UNL     1      -7.656  -1.305 -13.512  1.00  0.00    -0.457 OA
BRANCH   8   9
ATOM      9  C   UNL     1      -6.628  -1.044 -12.635  1.00  0.00    +0.131 A 
ATOM     10  C   UNL     1      -5.626  -0.997 -10.485  1.00  0.00    +0.131 A 
ATOM     11  C   UNL     1      -6.744  -1.252 -11.264  1.00  0.00    +0.081 A 
ATOM     12  N   UNL     1      -4.430  -0.563 -10.983  1.00  0.00    -0.251 NA
ATOM     13  C   UNL     1      -4.359  -0.397 -12.321  1.00  0.00    +0.116 A 
ATOM     14  C   UNL     1      -5.417  -0.630 -13.181  1.00  0.00    +0.067 A 
BRANCH  10  15
ATOM     15  C   UNL     1      -5.690  -1.205  -9.002  1.00  0.00    +0.269 C 
ATOM     16  N   UNL     1      -6.557  -0.356  -8.348  1.00  0.00    -0.354 N 
ATOM     17  O   UNL     1      -5.021  -2.070  -8.447  1.00  0.00    -0.268 OA
ATOM     18  C   UNL     1      -6.855  -0.489  -6.949  1.00  0.00    +0.143 C 
ATOM     19  H   UNL     1      -7.122   0.245  -8.942  1.00  0.00    +0.163 HD
ENDBRANCH  10  15
ENDBRANCH   8   9
ENDBRANCH   1   8
BRANCH   4  20
ATOM     20  N   UNL     1      -9.984   3.071 -16.096  1.00  0.00    -0.305 N 
ATOM     21  C   UNL     1      -9.313   4.148 -16.662  1.00  0.00    +0.323 C 
ATOM     22  O   UNL     1      -8.120   4.376 -16.525  1.00  0.00    -0.248 OA
ATOM     23  N   UNL     1     -10.211   4.940 -17.363  1.00  0.00    -0.308 N 
ATOM     24  H   UNL     1     -10.913   3.292 -15.768  1.00  0.00    +0.171 HD
ATOM     25  H   UNL     1     -11.078   4.482 -17.605  1.00  0.00    +0.171 HD
BRANCH  23  26
ATOM     26  C   UNL     1      -9.956   6.183 -17.978  1.00  0.00    +0.043 A 
ATOM     27  C   UNL     1      -9.475   7.300 -17.299  1.00  0.00    +0.028 A 
ATOM     28  C   UNL     1     -10.230   6.292 -19.347  1.00  0.00    +0.040 A 
ATOM     29  C   UNL     1      -9.258   8.502 -17.981  1.00  0.00    +0.023 A 
ATOM     30  C   UNL     1     -10.018   7.497 -20.050  1.00  0.00    +0.076 A 
ATOM     31  C   UNL     1      -9.526   8.601 -19.347  1.00  0.00    +0.053 A 
ATOM     32 Cl   UNL     1      -9.234  10.120 -20.113  1.00  0.00    -0.084 Cl
BRANCH  30  33
ATOM     33  C   UNL     1     -10.321   7.571 -21.521  1.00  0.00    +0.417 C 
ATOM     34  F   UNL     1      -9.235   7.936 -22.266  1.00  0.00    -0.166 F 
ATOM     35  F   UNL     1     -10.729   6.383 -22.045  1.00  0.00    -0.166 F 
ATOM     36  F   UNL     1     -11.284   8.483 -21.825  1.00  0.00    -0.166 F 
ENDBRANCH  30  33
ENDBRANCH  23  26
ENDBRANCH   4  20
TORSDOF 6
ENDMDL
MODEL 5
REMARK VINA RESULT:    -8.697      1.675      2.136
REMARK INTER + INTRA:         -12.904
REMARK INTER:                 -11.818
REMARK INTRA:                  -1.087
REMARK UNBOUND:                -1.157
REMARK SMILES CNC(=O)c1cc(Oc2ccc(NC(=O)Nc3ccc(Cl)c(C(F)(F)F)c3)c(F)c2)ccn1
REMARK SMILES IDX 9 1 10 2 11 3 12 4 28 5 29 6 30 7 8 8 7 9 5 10 6 11 33 12
REMARK SMILES IDX 32 13 31 14 3 15 2 16 4 17 1 18 13 20 14 21 15 22 16 23
REMARK SMILES IDX 17 26 18 27 27 28 19 29 22 30 20 31 21 32 23 33 24 34 25 35
REMARK SMILES IDX 26 36
REMARK H PARENT 2 19 13 24 16 25
ROOT
ATOM      1  C   UNL     1     -13.624  -0.953  -9.836  1.00  0.00    +0.130 A 
ATOM      2  C   UNL     1     -12.300  -1.328 -10.060  1.00  0.00    +0.049 A 
ATOM      3  C   UNL     1     -11.435  -0.466 -10.742  1.00  0.00    +0.033 A 
ATOM      4  C   UNL     1     -11.890   0.775 -11.205  1.00  0.00    +0.079 A 
ATOM      5  C   UNL     1     -13.209   1.156 -10.920  1.00  0.00    +0.150 A 
ATOM      6  F   UNL     1     -13.653   2.389 -11.203  1.00  0.00    -0.205 F 
ATOM      7  C   UNL     1     -14.077   0.300 -10.245  1.00  0.00    +0.088 A 
ENDROOT
BRANCH   1   8
ATOM      8  O   UNL     1     -14.418  -1.824  -9.127  1.00  0.00    -0.457 OA
BRANCH   8   9
ATOM      9  C   UNL     1     -14.789  -1.433  -7.861  1.00  0.00    +0.131 A 
ATOM     10  C   UNL     1     -16.343  -0.668  -6.240  1.00  0.00    +0.131 A 
ATOM     11  C   UNL     1     -16.074  -0.992  -7.561  1.00  0.00    +0.081 A 
ATOM     12  N   UNL     1     -15.430  -0.761  -5.228  1.00  0.00    -0.251 NA
ATOM     13  C   UNL     1     -14.203  -1.215  -5.564  1.00  0.00    +0.116 A 
ATOM     14  C   UNL     1     -13.841  -1.569  -6.851  1.00  0.00    +0.067 A 
BRANCH  10  15
ATOM     15  C   UNL     1     -17.711  -0.189  -5.855  1.00  0.00    +0.269 C 
ATOM     16  N   UNL     1     -18.709  -0.567  -6.727  1.00  0.00    -0.354 N 
ATOM     17  O   UNL     1     -17.896   0.475  -4.842  1.00  0.00    -0.268 OA
ATOM     18  C   UNL     1     -20.099  -0.320  -6.461  1.00  0.00    +0.143 C 
ATOM     19  H   UNL     1     -18.431  -1.200  -7.473  1.00  0.00    +0.163 HD
ENDBRANCH  10  15
ENDBRANCH   8   9
ENDBRANCH   1   8
BRANCH   4  20
ATOM     20  N   UNL     1     -10.963   1.597 -11.884  1.00  0.00    -0.305 N 
ATOM     21  C   UNL     1     -11.069   1.975 -13.218  1.00  0.00    +0.323 C 
ATOM     22  O   UNL     1     -11.841   1.477 -14.023  1.00  0.00    -0.248 OA
ATOM     23  N   UNL     1     -10.139   2.966 -13.496  1.00  0.00    -0.308 N 
ATOM     24  H   UNL     1     -10.017   1.595 -11.532  1.00  0.00    +0.171 HD
ATOM     25  H   UNL     1      -9.779   3.448 -12.684  1.00  0.00    +0.171 HD
BRANCH  23  26
ATOM     26  C   UNL     1      -9.842   3.531 -14.753  1.00  0.00    +0.043 A 
ATOM     27  C   UNL     1     -10.683   4.415 -15.425  1.00  0.00    +0.028 A 
ATOM     28  C   UNL     1      -8.637   3.154 -15.359  1.00  0.00    +0.040 A 
ATOM     29  C   UNL     1     -10.319   4.924 -16.676  1.00  0.00    +0.023 A 
ATOM     30  C   UNL     1      -8.255   3.657 -16.621  1.00  0.00    +0.076 A 
ATOM     31  C   UNL     1      -9.113   4.549 -17.271  1.00  0.00    +0.053 A 
ATOM     32 Cl   UNL     1      -8.739   5.221 -18.816  1.00  0.00    -0.084 Cl
BRANCH  30  33
ATOM     33  C   UNL     1      -6.951   3.230 -17.236  1.00  0.00    +0.417 C 
ATOM     34  F   UNL     1      -6.126   4.284 -17.512  1.00  0.00    -0.166 F 
ATOM     35  F   UNL     1      -6.222   2.410 -16.430  1.00  0.00    -0.166 F 
ATOM     36  F   UNL     1      -7.104   2.577 -18.420  1.00  0.00    -0.166 F 
ENDBRANCH  30  33
ENDBRANCH  23  26
ENDBRANCH   4  20
TORSDOF 6
ENDMDL
MODEL 6
REMARK VINA RESULT:    -8.645      1.326      2.577
REMARK INTER + INTRA:         -12.834
REMARK INTER:                 -11.709
REMARK INTRA:                  -1.124
REMARK UNBOUND:                -1.157
REMARK SMILES CNC(=O)c1cc(Oc2ccc(NC(=O)Nc3ccc(Cl)c(C(F)(F)F)c3)c(F)c2)ccn1
REMARK SMILES IDX 9 1 10 2 11 3 12 4 28 5 29 6 30 7 8 8 7 9 5 10 6 11 33 12
REMARK SMILES IDX 32 13 31 14 3 15 2 16 4 17 1 18 13 20 14 21 15 22 16 23
REMARK SMILES IDX 17 26 18 27 27 28 19 29 22 30 20 31 21 32 23 33 24 34 25 35
REMARK SMILES IDX 26 36
REMARK H PARENT 2 19 13 24 16 25
ROOT
ATOM      1  C   UNL     1     -13.829  -0.895  -9.816  1.00  0.00    +0.130 A 
ATOM      2  C   UNL     1     -12.498  -1.282  -9.969  1.00  0.00    +0.049 A 
ATOM      3  C   UNL     1     -11.596  -0.439 -10.626  1.00  0.00    +0.033 A 
ATOM      4  C   UNL     1     -12.020   0.797 -11.132  1.00  0.00    +0.079 A 
ATOM      5  C   UNL     1     -13.348   1.191 -10.917  1.00  0.00    +0.150 A 
ATOM      6  F   UNL     1     -13.770   2.421 -11.242  1.00  0.00    -0.205 F 
ATOM      7  C   UNL     1     -14.253   0.353 -10.268  1.00  0.00    +0.088 A 
ENDROOT
BRANCH   1   8
ATOM      8  O   UNL     1     -14.661  -1.749  -9.129  1.00  0.00    -0.457 OA
BRANCH   8   9
ATOM      9  C   UNL     1     -14.867  -1.474  -7.796  1.00  0.00    +0.131 A 
ATOM     10  C   UNL     1     -14.150  -1.085  -5.568  1.00  0.00    +0.131 A 
ATOM     11  C   UNL     1     -13.826  -1.417  -6.875  1.00  0.00    +0.081 A 
ATOM     12  N   UNL     1     -15.419  -0.811  -5.141  1.00  0.00    -0.251 NA
ATOM     13  C   UNL     1     -16.392  -0.858  -6.075  1.00  0.00    +0.116 A 
ATOM     14  C   UNL     1     -16.167  -1.173  -7.404  1.00  0.00    +0.067 A 
BRANCH  10  15
ATOM     15  C   UNL     1     -13.070  -1.005  -4.531  1.00  0.00    +0.269 C 
ATOM     16  N   UNL     1     -12.205  -2.078  -4.531  1.00  0.00    -0.354 N 
ATOM     17  O   UNL     1     -12.986  -0.051  -3.766  1.00  0.00    -0.268 OA
ATOM     18  C   UNL     1     -11.031  -2.120  -3.705  1.00  0.00    +0.143 C 
ATOM     19  H   UNL     1     -12.330  -2.750  -5.284  1.00  0.00    +0.163 HD
ENDBRANCH  10  15
ENDBRANCH   8   9
ENDBRANCH   1   8
BRANCH   4  20
ATOM     20  N   UNL     1     -11.056   1.601 -11.782  1.00  0.00    -0.305 N 
ATOM     21  C   UNL     1     -11.004   1.820 -13.153  1.00  0.00    +0.323 C 
ATOM     22  O   UNL     1     -11.633   1.183 -13.985  1.00  0.00    -0.248 OA
ATOM     23  N   UNL     1     -10.100   2.836 -13.427  1.00  0.00    -0.308 N 
ATOM     24  H   UNL     1     -10.168   1.703 -11.314  1.00  0.00    +0.171 HD
ATOM     25  H   UNL     1      -9.878   3.429 -12.640  1.00  0.00    +0.171 HD
BRANCH  23  26
ATOM     26  C   UNL     1      -9.668   3.277 -14.695  1.00  0.00    +0.043 A 
ATOM     27  C   UNL     1      -8.554   2.766 -15.356  1.00  0.00    +0.028 A 
ATOM     28  C   UNL     1     -10.400   4.306 -15.301  1.00  0.00    +0.040 A 
ATOM     29  C   UNL     1      -8.185   3.266 -16.610  1.00  0.00    +0.023 A 
ATOM     30  C   UNL     1     -10.041   4.822 -16.565  1.00  0.00    +0.076 A 
ATOM     31  C   UNL     1      -8.923   4.287 -17.212  1.00  0.00    +0.053 A 
ATOM     32 Cl   UNL     1      -8.401   4.848 -18.757  1.00  0.00    -0.084 Cl
BRANCH  30  33
ATOM     33  C   UNL     1     -10.855   5.925 -17.184  1.00  0.00    +0.417 C 
ATOM     34  F   UNL     1     -11.946   6.262 -16.434  1.00  0.00    -0.166 F 
ATOM     35  F   UNL     1     -10.158   7.084 -17.337  1.00  0.00    -0.166 F 
ATOM     36  F   UNL     1     -11.350   5.603 -18.410  1.00  0.00    -0.166 F 
ENDBRANCH  30  33
ENDBRANCH  23  26
ENDBRANCH   4  20
TORSDOF 6
ENDMDL
MODEL 7
REMARK VINA RESULT:    -8.602      7.307      9.740
REMARK INTER + INTRA:         -12.776
REMARK INTER:                 -11.745
REMARK INTRA:                  -1.031
REMARK UNBOUND:                -1.157
REMARK SMILES CNC(=O)c1cc(Oc2ccc(NC(=O)Nc3ccc(Cl)c(C(F)(F)F)c3)c(F)c2)ccn1
REMARK SMILES IDX 9 1 10 2 11 3 12 4 28 5 29 6 30 7 8 8 7 9 5 10 6 11 33 12
REMARK SMILES IDX 32 13 31 14 3 15 2 16 4 17 1 18 13 20 14 21 15 22 16 23
REMARK SMILES IDX 17 26 18 27 27 28 19 29 22 30 20 31 21 32 23 33 24 34 25 35
REMARK SMILES IDX 26 36
REMARK H PARENT 2 19 13 24 16 25
ROOT
ATOM      1  C   UNL     1      -8.109  -0.132 -14.245  1.00  0.00    +0.130 A 
ATOM      2  C   UNL     1      -8.730   0.829 -13.449  1.00  0.00    +0.049 A 
ATOM      3  C   UNL     1      -9.324   1.949 -14.039  1.00  0.00    +0.033 A 
ATOM      4  C   UNL     1      -9.302   2.114 -15.429  1.00  0.00    +0.079 A 
ATOM      5  C   UNL     1      -8.722   1.108 -16.216  1.00  0.00    +0.150 A 
ATOM      6  F   UNL     1      -8.805   1.136 -17.553  1.00  0.00    -0.205 F 
ATOM      7  C   UNL     1      -8.124  -0.008 -15.634  1.00  0.00    +0.088 A 
ENDROOT
BRANCH   1   8
ATOM      8  O   UNL     1      -7.575  -1.230 -13.612  1.00  0.00    -0.457 OA
BRANCH   8   9
ATOM      9  C   UNL     1      -6.220  -1.211 -13.376  1.00  0.00    +0.131 A 
ATOM     10  C   UNL     1      -3.943  -1.247 -14.042  1.00  0.00    +0.131 A 
ATOM     11  C   UNL     1      -5.281  -1.327 -14.396  1.00  0.00    +0.081 A 
ATOM     12  N   UNL     1      -3.500  -1.059 -12.763  1.00  0.00    -0.251 NA
ATOM     13  C   UNL     1      -4.448  -0.930 -11.810  1.00  0.00    +0.116 A 
ATOM     14  C   UNL     1      -5.807  -0.989 -12.066  1.00  0.00    +0.067 A 
BRANCH  10  15
ATOM     15  C   UNL     1      -2.885  -1.362 -15.098  1.00  0.00    +0.269 C 
ATOM     16  N   UNL     1      -2.342  -0.157 -15.490  1.00  0.00    -0.354 N 
ATOM     17  O   UNL     1      -2.549  -2.450 -15.551  1.00  0.00    -0.268 OA
ATOM     18  C   UNL     1      -1.226  -0.072 -16.390  1.00  0.00    +0.143 C 
ATOM     19  H   UNL     1      -2.642   0.658 -14.961  1.00  0.00    +0.163 HD
ENDBRANCH  10  15
ENDBRANCH   8   9
ENDBRANCH   1   8
BRANCH   4  20
ATOM     20  N   UNL     1      -9.923   3.266 -15.960  1.00  0.00    -0.305 N 
ATOM     21  C   UNL     1      -9.264   4.272 -16.657  1.00  0.00    +0.323 C 
ATOM     22  O   UNL     1      -8.050   4.401 -16.710  1.00  0.00    -0.248 OA
ATOM     23  N   UNL     1     -10.193   5.121 -17.240  1.00  0.00    -0.308 N 
ATOM     24  H   UNL     1     -10.771   3.571 -15.504  1.00  0.00    +0.171 HD
ATOM     25  H   UNL     1     -11.121   4.733 -17.333  1.00  0.00    +0.171 HD
BRANCH  23  26
ATOM     26  C   UNL     1      -9.937   6.325 -17.927  1.00  0.00    +0.043 A 
ATOM     27  C   UNL     1      -9.464   7.483 -17.314  1.00  0.00    +0.028 A 
ATOM     28  C   UNL     1     -10.201   6.350 -19.303  1.00  0.00    +0.040 A 
ATOM     29  C   UNL     1      -9.246   8.642 -18.066  1.00  0.00    +0.023 A 
ATOM     30  C   UNL     1      -9.987   7.511 -20.076  1.00  0.00    +0.076 A 
ATOM     31  C   UNL     1      -9.504   8.658 -19.438  1.00  0.00    +0.053 A 
ATOM     32 Cl   UNL     1      -9.210  10.127 -20.292  1.00  0.00    -0.084 Cl
BRANCH  30  33
ATOM     33  C   UNL     1     -10.279   7.495 -21.550  1.00  0.00    +0.417 C 
ATOM     34  F   UNL     1     -10.714   6.277 -21.990  1.00  0.00    -0.166 F 
ATOM     35  F   UNL     1     -11.254   8.373 -21.913  1.00  0.00    -0.166 F 
ATOM     36  F   UNL     1      -9.191   7.783 -22.316  1.00  0.00    -0.166 F 
ENDBRANCH  30  33
ENDBRANCH  23  26
ENDBRANCH   4  20
TORSDOF 6
ENDMDL
MODEL 8
REMARK VINA RESULT:    -8.448      5.103      7.318
REMARK INTER + INTRA:         -12.569
REMARK INTER:                 -11.740
REMARK INTRA:                  -0.828
REMARK UNBOUND:                -1.157
REMARK SMILES CNC(=O)c1cc(Oc2ccc(NC(=O)Nc3ccc(Cl)c(C(F)(F)F)c3)c(F)c2)ccn1
REMARK SMILES IDX 9 1 10 2 11 3 12 4 28 5 29 6 30 7 8 8 7 9 5 10 6 11 33 12
REMARK SMILES IDX 32 13 31 14 3 15 2 16 4 17 1 18 13 20 14 21 15 22 16 23
REMARK SMILES IDX 17 26 18 27 27 28 19 29 22 30 20 31 21 32 23 33 24 34 25 35
REMARK SMILES IDX 26 36
REMARK H PARENT 2 19 13 24 16 25
ROOT
ATOM      1  C   UNL     1      -7.517  -0.255 -14.554  1.00  0.00    +0.130 A 
ATOM      2  C   UNL     1      -8.088  -0.345 -15.823  1.00  0.00    +0.049 A 
ATOM      3  C   UNL     1      -8.776   0.747 -16.359  1.00  0.00    +0.033 A 
ATOM      4  C   UNL     1      -8.898   1.937 -15.630  1.00  0.00    +0.079 A 
ATOM      5  C   UNL     1      -8.268   2.025 -14.380  1.00  0.00    +0.150 A 
ATOM      6  F   UNL     1      -8.221   3.183 -13.706  1.00  0.00    -0.205 F 
ATOM      7  C   UNL     1      -7.584   0.939 -13.838  1.00  0.00    +0.088 A 
ENDROOT
BRANCH   1   8
ATOM      8  O   UNL     1      -6.820  -1.348 -14.094  1.00  0.00    -0.457 OA
BRANCH   8   9
ATOM      9  C   UNL     1      -6.749  -1.508 -12.730  1.00  0.00    +0.131 A 
ATOM     10  C   UNL     1      -7.665  -1.970 -10.591  1.00  0.00    +0.131 A 
ATOM     11  C   UNL     1      -7.867  -1.783 -11.950  1.00  0.00    +0.081 A 
ATOM     12  N   UNL     1      -6.443  -1.903  -9.983  1.00  0.00    -0.251 NA
ATOM     13  C   UNL     1      -5.385  -1.656 -10.784  1.00  0.00    +0.116 A 
ATOM     14  C   UNL     1      -5.484  -1.462 -12.151  1.00  0.00    +0.067 A 
BRANCH  10  15
ATOM     15  C   UNL     1      -8.832  -2.272  -9.700  1.00  0.00    +0.269 C 
ATOM     16  N   UNL     1      -9.381  -1.164  -9.091  1.00  0.00    -0.354 N 
ATOM     17  O   UNL     1      -9.245  -3.416  -9.550  1.00  0.00    -0.268 OA
ATOM     18  C   UNL     1     -10.585  -1.231  -8.309  1.00  0.00    +0.143 C 
ATOM     19  H   UNL     1      -9.004  -0.265  -9.381  1.00  0.00    +0.163 HD
ENDBRANCH  10  15
ENDBRANCH   8   9
ENDBRANCH   1   8
BRANCH   4  20
ATOM     20  N   UNL     1      -9.604   3.002 -16.232  1.00  0.00    -0.305 N 
ATOM     21  C   UNL     1      -9.012   4.131 -16.785  1.00  0.00    +0.323 C 
ATOM     22  O   UNL     1      -7.843   4.451 -16.629  1.00  0.00    -0.248 OA
ATOM     23  N   UNL     1      -9.959   4.853 -17.498  1.00  0.00    -0.308 N 
ATOM     24  H   UNL     1     -10.552   3.148 -15.918  1.00  0.00    +0.171 HD
ATOM     25  H   UNL     1     -10.784   4.329 -17.754  1.00  0.00    +0.171 HD
BRANCH  23  26
ATOM     26  C   UNL     1      -9.794   6.114 -18.104  1.00  0.00    +0.043 A 
ATOM     27  C   UNL     1      -9.379   7.255 -17.422  1.00  0.00    +0.028 A 
ATOM     28  C   UNL     1     -10.091   6.215 -19.469  1.00  0.00    +0.040 A 
ATOM     29  C   UNL     1      -9.250   8.474 -18.096  1.00  0.00    +0.023 A 
ATOM     30  C   UNL     1      -9.967   7.437 -20.164  1.00  0.00    +0.076 A 
ATOM     31  C   UNL     1      -9.541   8.566 -19.458  1.00  0.00    +0.053 A 
ATOM     32 Cl   UNL     1      -9.358  10.106 -20.214  1.00  0.00    -0.084 Cl
BRANCH  30  33
ATOM     33  C   UNL     1     -10.293   7.503 -21.631  1.00  0.00    +0.417 C 
ATOM     34  F   UNL     1      -9.221   7.871 -22.394  1.00  0.00    -0.166 F 
ATOM     35  F   UNL     1     -10.701   6.310 -22.143  1.00  0.00    -0.166 F 
ATOM     36  F   UNL     1     -11.267   8.407 -21.925  1.00  0.00    -0.166 F 
ENDBRANCH  30  33
ENDBRANCH  23  26
ENDBRANCH   4  20
TORSDOF 6
ENDMDL
MODEL 9
REMARK VINA RESULT:    -8.446      1.738      1.958
REMARK INTER + INTRA:         -12.566
REMARK INTER:                 -11.765
REMARK INTRA:                  -0.801
REMARK UNBOUND:                -1.157
REMARK SMILES CNC(=O)c1cc(Oc2ccc(NC(=O)Nc3ccc(Cl)c(C(F)(F)F)c3)c(F)c2)ccn1
REMARK SMILES IDX 9 1 10 2 11 3 12 4 28 5 29 6 30 7 8 8 7 9 5 10 6 11 33 12
REMARK SMILES IDX 32 13 31 14 3 15 2 16 4 17 1 18 13 20 14 21 15 22 16 23
REMARK SMILES IDX 17 26 18 27 27 28 19 29 22 30 20 31 21 32 23 33 24 34 25 35
REMARK SMILES IDX 26 36
REMARK H PARENT 2 19 13 24 16 25
ROOT
ATOM      1  C   UNL     1     -12.998  -2.712 -10.250  1.00  0.00    +0.130 A 
ATOM      2  C   UNL     1     -11.976  -3.180 -11.075  1.00  0.00    +0.049 A 
ATOM      3  C   UNL     1     -11.016  -2.294 -11.571  1.00  0.00    +0.033 A 
ATOM      4  C   UNL     1     -11.070  -0.933 -11.244  1.00  0.00    +0.079 A 
ATOM      5  C   UNL     1     -12.072  -0.493 -10.368  1.00  0.00    +0.150 A 
ATOM      6  F   UNL     1     -12.084   0.763  -9.900  1.00  0.00    -0.205 F 
ATOM      7  C   UNL     1     -13.035  -1.370  -9.873  1.00  0.00    +0.088 A 
ENDROOT
BRANCH   1   8
ATOM      8  O   UNL     1     -13.892  -3.636  -9.762  1.00  0.00    -0.457 OA
BRANCH   8   9
ATOM      9  C   UNL     1     -14.526  -3.321  -8.582  1.00  0.00    +0.131 A 
ATOM     10  C   UNL     1     -16.307  -2.424  -7.297  1.00  0.00    +0.131 A 
ATOM     11  C   UNL     1     -15.741  -2.645  -8.543  1.00  0.00    +0.081 A 
ATOM     12  N   UNL     1     -15.747  -2.832  -6.119  1.00  0.00    -0.251 NA
ATOM     13  C   UNL     1     -14.579  -3.504  -6.209  1.00  0.00    +0.116 A 
ATOM     14  C   UNL     1     -13.940  -3.778  -7.405  1.00  0.00    +0.067 A 
BRANCH  10  15
ATOM     15  C   UNL     1     -17.617  -1.703  -7.192  1.00  0.00    +0.269 C 
ATOM     16  N   UNL     1     -17.513  -0.329  -7.247  1.00  0.00    -0.354 N 
ATOM     17  O   UNL     1     -18.675  -2.310  -7.075  1.00  0.00    -0.268 OA
ATOM     18  C   UNL     1     -18.664   0.529  -7.298  1.00  0.00    +0.143 C 
ATOM     19  H   UNL     1     -16.586   0.038  -7.447  1.00  0.00    +0.163 HD
ENDBRANCH  10  15
ENDBRANCH   8   9
ENDBRANCH   1   8
BRANCH   4  20
ATOM     20  N   UNL     1     -10.067  -0.093 -11.777  1.00  0.00    -0.305 N 
ATOM     21  C   UNL     1     -10.045   0.385 -13.082  1.00  0.00    +0.323 C 
ATOM     22  O   UNL     1     -10.754  -0.029 -13.987  1.00  0.00    -0.248 OA
ATOM     23  N   UNL     1      -9.069   1.363 -13.204  1.00  0.00    -0.308 N 
ATOM     24  H   UNL     1      -9.156  -0.151 -11.345  1.00  0.00    +0.171 HD
ATOM     25  H   UNL     1      -8.770   1.773 -12.330  1.00  0.00    +0.171 HD
BRANCH  23  26
ATOM     26  C   UNL     1      -8.647   2.008 -14.384  1.00  0.00    +0.043 A 
ATOM     27  C   UNL     1      -7.494   1.667 -15.086  1.00  0.00    +0.028 A 
ATOM     28  C   UNL     1      -9.433   3.068 -14.853  1.00  0.00    +0.040 A 
ATOM     29  C   UNL     1      -7.139   2.364 -16.245  1.00  0.00    +0.023 A 
ATOM     30  C   UNL     1      -9.090   3.783 -16.021  1.00  0.00    +0.076 A 
ATOM     31  C   UNL     1      -7.931   3.415 -16.711  1.00  0.00    +0.053 A 
ATOM     32 Cl   UNL     1      -7.422   4.225 -18.147  1.00  0.00    -0.084 Cl
BRANCH  30  33
ATOM     33  C   UNL     1      -9.962   4.912 -16.494  1.00  0.00    +0.417 C 
ATOM     34  F   UNL     1     -11.026   5.141 -15.667  1.00  0.00    -0.166 F 
ATOM     35  F   UNL     1      -9.306   6.103 -16.565  1.00  0.00    -0.166 F 
ATOM     36  F   UNL     1     -10.506   4.693 -17.722  1.00  0.00    -0.166 F 
ENDBRANCH  30  33
ENDBRANCH  23  26
ENDBRANCH   4  20
TORSDOF 6
ENDMDL
MODEL 10
REMARK VINA RESULT:    -8.130      7.701     11.274
REMARK INTER + INTRA:         -12.139
REMARK INTER:                 -11.152
REMARK INTRA:                  -0.987
REMARK UNBOUND:                -1.157
REMARK SMILES CNC(=O)c1cc(Oc2ccc(NC(=O)Nc3ccc(Cl)c(C(F)(F)F)c3)c(F)c2)ccn1
REMARK SMILES IDX 9 1 10 2 11 3 12 4 28 5 29 6 30 7 8 8 7 9 5 10 6 11 33 12
REMARK SMILES IDX 32 13 31 14 3 15 2 16 4 17 1 18 13 20 14 21 15 22 16 23
REMARK SMILES IDX 17 26 18 27 27 28 19 29 22 30 20 31 21 32 23 33 24 34 25 35
REMARK SMILES IDX 26 36
REMARK H PARENT 2 19 13 24 16 25
ROOT
ATOM      1  C   UNL     1      -4.498  -2.815 -14.752  1.00  0.00    +0.130 A 
ATOM      2  C   UNL     1      -5.105  -2.088 -13.729  1.00  0.00    +0.049 A 
ATOM      3  C   UNL     1      -5.609  -0.809 -13.983  1.00  0.00    +0.033 A 
ATOM      4  C   UNL     1      -5.509  -0.249 -15.263  1.00  0.00    +0.079 A 
ATOM      5  C   UNL     1      -4.946  -1.018 -16.291  1.00  0.00    +0.150 A 
ATOM      6  F   UNL     1      -4.961  -0.597 -17.564  1.00  0.00    -0.205 F 
ATOM      7  C   UNL     1      -4.438  -2.292 -16.043  1.00  0.00    +0.088 A 
ENDROOT
BRANCH   1   8
ATOM      8  O   UNL     1      -4.055  -4.082 -14.453  1.00  0.00    -0.457 OA
BRANCH   8   9
ATOM      9  C   UNL     1      -4.505  -5.102 -15.259  1.00  0.00    +0.131 A 
ATOM     10  C   UNL     1      -4.252  -6.750 -16.947  1.00  0.00    +0.131 A 
ATOM     11  C   UNL     1      -3.704  -5.700 -16.227  1.00  0.00    +0.081 A 
ATOM     12  N   UNL     1      -5.519  -7.228 -16.759  1.00  0.00    -0.251 NA
ATOM     13  C   UNL     1      -6.250  -6.631 -15.794  1.00  0.00    +0.116 A 
ATOM     14  C   UNL     1      -5.790  -5.581 -15.019  1.00  0.00    +0.067 A 
BRANCH  10  15
ATOM     15  C   UNL     1      -3.436  -7.435 -18.001  1.00  0.00    +0.269 C 
ATOM     16  N   UNL     1      -2.093  -7.528 -17.706  1.00  0.00    -0.354 N 
ATOM     17  O   UNL     1      -3.949  -7.872 -19.025  1.00  0.00    -0.268 OA
ATOM     18  C   UNL     1      -1.173  -8.265 -18.527  1.00  0.00    +0.143 C 
ATOM     19  H   UNL     1      -1.819  -7.213 -16.778  1.00  0.00    +0.163 HD
ENDBRANCH  10  15
ENDBRANCH   8   9
ENDBRANCH   1   8
BRANCH   4  20
ATOM     20  N   UNL     1      -6.041   1.047 -15.452  1.00  0.00    -0.305 N 
ATOM     21  C   UNL     1      -7.398   1.348 -15.485  1.00  0.00    +0.323 C 
ATOM     22  O   UNL     1      -8.292   0.520 -15.576  1.00  0.00    -0.248 OA
ATOM     23  N   UNL     1      -7.571   2.723 -15.443  1.00  0.00    -0.308 N 
ATOM     24  H   UNL     1      -5.463   1.701 -15.957  1.00  0.00    +0.171 HD
ATOM     25  H   UNL     1      -6.773   3.239 -15.099  1.00  0.00    +0.171 HD
BRANCH  23  26
ATOM     26  C   UNL     1      -8.778   3.438 -15.577  1.00  0.00    +0.043 A 
ATOM     27  C   UNL     1      -9.824   3.374 -14.659  1.00  0.00    +0.028 A 
ATOM     28  C   UNL     1      -8.930   4.237 -16.717  1.00  0.00    +0.040 A 
ATOM     29  C   UNL     1     -10.996   4.108 -14.870  1.00  0.00    +0.023 A 
ATOM     30  C   UNL     1     -10.106   4.982 -16.946  1.00  0.00    +0.076 A 
ATOM     31  C   UNL     1     -11.138   4.908 -16.006  1.00  0.00    +0.053 A 
ATOM     32 Cl   UNL     1     -12.615   5.778 -16.193  1.00  0.00    -0.084 Cl
BRANCH  30  33
ATOM     33  C   UNL     1     -10.228   5.831 -18.182  1.00  0.00    +0.417 C 
ATOM     34  F   UNL     1      -9.227   5.601 -19.083  1.00  0.00    -0.166 F 
ATOM     35  F   UNL     1     -11.382   5.613 -18.870  1.00  0.00    -0.166 F 
ATOM     36  F   UNL     1     -10.175   7.166 -17.923  1.00  0.00    -0.166 F 
ENDBRANCH  30  33
ENDBRANCH  23  26
ENDBRANCH   4  20
TORSDOF 6
ENDMDL
