MODEL 1
REMARK VINA RESULT:   -11.270      0.000      0.000
REMARK INTER + INTRA:         -14.490
REMARK INTER:                 -14.565
REMARK INTRA:                   0.075
REMARK UNBOUND:                 0.075
REMARK SMILES CNC(=O)c1ccccc1Sc1ccc2c(/C=C/c3ccccn3)n[nH]c2c1
REMARK SMILES IDX 11 1 10 2 5 3 6 4 7 5 9 6 8 7 3 8 2 9 4 10 1 11 12 13 13 14
REMARK SMILES IDX 28 15 14 16 27 17 15 18 26 19 16 20 25 21 17 23 18 24 19 25
REMARK SMILES IDX 20 26 24 27 21 28 23 29 22 30
REMARK H PARENT 2 12 26 22
ROOT
ATOM      1  S   UNL     1     -39.076 158.683  -1.262  1.00  0.00    -0.089 SA
ENDROOT
BRANCH   1   2
ATOM      2  C   UNL     1     -40.222 159.108   0.049  1.00  0.00    +0.025 A 
ATOM      3  C   UNL     1     -40.023 158.797   1.406  1.00  0.00    +0.053 A 
ATOM      4  C   UNL     1     -41.014 159.110   2.351  1.00  0.00    +0.015 A 
ATOM      5  C   UNL     1     -42.183 159.761   1.963  1.00  0.00    +0.001 A 
ATOM      6  C   UNL     1     -41.404 159.770  -0.324  1.00  0.00    +0.016 A 
ATOM      7  C   UNL     1     -42.375 160.096   0.625  1.00  0.00    +0.001 A 
BRANCH   3   8
ATOM      8  C   UNL     1     -38.816 158.107   1.932  1.00  0.00    +0.252 C 
ATOM      9  N   UNL     1     -38.946 157.502   3.162  1.00  0.00    -0.355 N 
ATOM     10  O   UNL     1     -37.791 158.081   1.260  1.00  0.00    -0.269 OA
ATOM     11  C   UNL     1     -37.816 156.895   3.817  1.00  0.00    +0.143 C 
ATOM     12  H   UNL     1     -39.771 157.705   3.715  1.00  0.00    +0.163 HD
ENDBRANCH   3   8
ENDBRANCH   1   2
BRANCH   1  13
ATOM     13  C   UNL     1     -38.982 160.250  -2.121  1.00  0.00    +0.014 A 
ATOM     14  C   UNL     1     -38.958 160.261  -3.519  1.00  0.00    +0.016 A 
ATOM     15  C   UNL     1     -38.951 161.451  -1.399  1.00  0.00    +0.043 A 
ATOM     16  C   UNL     1     -38.886 161.466  -4.232  1.00  0.00    +0.014 A 
ATOM     17  C   UNL     1     -38.871 162.641  -2.133  1.00  0.00    +0.067 A 
ATOM     18  C   UNL     1     -38.837 162.682  -3.521  1.00  0.00    +0.027 A 
ATOM     19  N   UNL     1     -38.808 163.947  -1.733  1.00  0.00    -0.277 N 
ATOM     20  C   UNL     1     -38.760 164.072  -3.846  1.00  0.00    +0.093 A 
ATOM     21  N   UNL     1     -38.744 164.831  -2.740  1.00  0.00    -0.175 NA
ATOM     22  H   UNL     1     -38.803 164.300  -0.782  1.00  0.00    +0.190 HD
BRANCH  20  23
ATOM     23  C   UNL     1     -38.706 164.595  -5.180  1.00  0.00    +0.033 C 
ATOM     24  C   UNL     1     -38.087 163.996  -6.214  1.00  0.00    +0.030 C 
BRANCH  24  25
ATOM     25  C   UNL     1     -38.041 164.543  -7.574  1.00  0.00    +0.063 A 
ATOM     26  C   UNL     1     -37.997 163.684  -8.668  1.00  0.00    +0.028 A 
ATOM     27  N   UNL     1     -38.045 165.891  -7.710  1.00  0.00    -0.257 NA
ATOM     28  C   UNL     1     -37.953 164.226  -9.951  1.00  0.00    +0.004 A 
ATOM     29  C   UNL     1     -38.002 166.390  -8.965  1.00  0.00    +0.111 A 
ATOM     30  C   UNL     1     -37.956 165.606 -10.106  1.00  0.00    +0.020 A 
ENDBRANCH  24  25
ENDBRANCH  20  23
ENDBRANCH   1  13
TORSDOF 5
ENDMDL
MODEL 2
REMARK VINA RESULT:   -10.358      2.944     10.126
REMARK INTER + INTRA:         -13.311
REMARK INTER:                 -13.256
REMARK INTRA:                  -0.055
REMARK UNBOUND:                 0.075
REMARK SMILES CNC(=O)c1ccccc1Sc1ccc2c(/C=C/c3ccccn3)n[nH]c2c1
REMARK SMILES IDX 11 1 10 2 5 3 6 4 7 5 9 6 8 7 3 8 2 9 4 10 1 11 12 13 13 14
REMARK SMILES IDX 28 15 14 16 27 17 15 18 26 19 16 20 25 21 17 23 18 24 19 25
REMARK SMILES IDX 20 26 24 27 21 28 23 29 22 30
REMARK H PARENT 2 12 26 22
ROOT
ATOM      1  S   UNL     1     -39.328 160.670  -4.622  1.00  0.00    -0.089 SA
ENDROOT
BRANCH   1   2
ATOM      2  C   UNL     1     -38.755 162.360  -4.456  1.00  0.00    +0.025 A 
ATOM      3  C   UNL     1     -37.963 163.024  -5.409  1.00  0.00    +0.053 A 
ATOM      4  C   UNL     1     -37.503 164.327  -5.156  1.00  0.00    +0.015 A 
ATOM      5  C   UNL     1     -37.854 164.985  -3.978  1.00  0.00    +0.001 A 
ATOM      6  C   UNL     1     -39.104 163.041  -3.278  1.00  0.00    +0.016 A 
ATOM      7  C   UNL     1     -38.659 164.343  -3.042  1.00  0.00    +0.001 A 
BRANCH   3   8
ATOM      8  C   UNL     1     -37.532 162.421  -6.697  1.00  0.00    +0.252 C 
ATOM      9  N   UNL     1     -38.161 162.886  -7.830  1.00  0.00    -0.355 N 
ATOM     10  O   UNL     1     -36.641 161.579  -6.705  1.00  0.00    -0.269 OA
ATOM     11  C   UNL     1     -37.900 162.302  -9.121  1.00  0.00    +0.143 C 
ATOM     12  H   UNL     1     -38.988 163.461  -7.721  1.00  0.00    +0.163 HD
ENDBRANCH   3   8
ENDBRANCH   1   2
BRANCH   1  13
ATOM     13  C   UNL     1     -39.144 160.105  -2.934  1.00  0.00    +0.014 A 
ATOM     14  C   UNL     1     -38.264 159.053  -2.660  1.00  0.00    +0.016 A 
ATOM     15  C   UNL     1     -39.859 160.723  -1.899  1.00  0.00    +0.043 A 
ATOM     16  C   UNL     1     -38.089 158.579  -1.352  1.00  0.00    +0.014 A 
ATOM     17  C   UNL     1     -39.673 160.228  -0.603  1.00  0.00    +0.067 A 
ATOM     18  C   UNL     1     -38.813 159.179  -0.302  1.00  0.00    +0.027 A 
ATOM     19  N   UNL     1     -40.225 160.595   0.592  1.00  0.00    -0.277 N 
ATOM     20  C   UNL     1     -38.925 159.006   1.112  1.00  0.00    +0.093 A 
ATOM     21  N   UNL     1     -39.793 159.882   1.643  1.00  0.00    -0.175 NA
ATOM     22  H   UNL     1     -40.907 161.328   0.756  1.00  0.00    +0.190 HD
BRANCH  20  23
ATOM     23  C   UNL     1     -38.207 158.026   1.873  1.00  0.00    +0.033 C 
ATOM     24  C   UNL     1     -37.930 158.126   3.185  1.00  0.00    +0.030 C 
BRANCH  24  25
ATOM     25  C   UNL     1     -37.195 157.114   3.951  1.00  0.00    +0.063 A 
ATOM     26  C   UNL     1     -37.886 156.099   4.606  1.00  0.00    +0.028 A 
ATOM     27  N   UNL     1     -35.844 157.213   3.988  1.00  0.00    -0.257 NA
ATOM     28  C   UNL     1     -37.167 155.149   5.328  1.00  0.00    +0.004 A 
ATOM     29  C   UNL     1     -35.172 156.278   4.695  1.00  0.00    +0.111 A 
ATOM     30  C   UNL     1     -35.781 155.237   5.375  1.00  0.00    +0.020 A 
ENDBRANCH  24  25
ENDBRANCH  20  23
ENDBRANCH   1  13
TORSDOF 5
ENDMDL
MODEL 3
REMARK VINA RESULT:   -10.274      4.266     11.012
REMARK INTER + INTRA:         -13.202
REMARK INTER:                 -12.452
REMARK INTRA:                  -0.751
REMARK UNBOUND:                 0.075
REMARK SMILES CNC(=O)c1ccccc1Sc1ccc2c(/C=C/c3ccccn3)n[nH]c2c1
REMARK SMILES IDX 11 1 10 2 5 3 6 4 7 5 9 6 8 7 3 8 2 9 4 10 1 11 12 13 13 14
REMARK SMILES IDX 28 15 14 16 27 17 15 18 26 19 16 20 25 21 17 23 18 24 19 25
REMARK SMILES IDX 20 26 24 27 21 28 23 29 22 30
REMARK H PARENT 2 12 26 22
ROOT
ATOM      1  S   UNL     1     -38.206 164.026 -10.732  1.00  0.00    -0.089 SA
ENDROOT
BRANCH   1   2
ATOM      2  C   UNL     1     -36.533 164.612 -11.000  1.00  0.00    +0.025 A 
ATOM      3  C   UNL     1     -36.198 165.951 -11.274  1.00  0.00    +0.053 A 
ATOM      4  C   UNL     1     -34.864 166.300 -11.540  1.00  0.00    +0.015 A 
ATOM      5  C   UNL     1     -33.858 165.337 -11.502  1.00  0.00    +0.001 A 
ATOM      6  C   UNL     1     -35.505 163.655 -10.959  1.00  0.00    +0.016 A 
ATOM      7  C   UNL     1     -34.178 164.015 -11.205  1.00  0.00    +0.001 A 
BRANCH   3   8
ATOM      8  C   UNL     1     -37.186 167.058 -11.338  1.00  0.00    +0.252 C 
ATOM      9  N   UNL     1     -36.819 168.240 -10.734  1.00  0.00    -0.355 N 
ATOM     10  O   UNL     1     -38.246 166.893 -11.931  1.00  0.00    -0.269 OA
ATOM     11  C   UNL     1     -37.736 169.347 -10.641  1.00  0.00    +0.143 C 
ATOM     12  H   UNL     1     -36.001 168.242 -10.135  1.00  0.00    +0.163 HD
ENDBRANCH   3   8
ENDBRANCH   1   2
BRANCH   1  13
ATOM     13  C   UNL     1     -38.197 163.847  -8.952  1.00  0.00    +0.014 A 
ATOM     14  C   UNL     1     -38.199 162.564  -8.396  1.00  0.00    +0.016 A 
ATOM     15  C   UNL     1     -38.169 164.980  -8.127  1.00  0.00    +0.043 A 
ATOM     16  C   UNL     1     -38.192 162.379  -7.006  1.00  0.00    +0.014 A 
ATOM     17  C   UNL     1     -38.169 164.769  -6.743  1.00  0.00    +0.067 A 
ATOM     18  C   UNL     1     -38.181 163.508  -6.162  1.00  0.00    +0.027 A 
ATOM     19  N   UNL     1     -38.163 165.648  -5.695  1.00  0.00    -0.277 N 
ATOM     20  C   UNL     1     -38.173 163.750  -4.754  1.00  0.00    +0.093 A 
ATOM     21  N   UNL     1     -38.161 165.066  -4.486  1.00  0.00    -0.175 NA
ATOM     22  H   UNL     1     -38.161 166.661  -5.741  1.00  0.00    +0.190 HD
BRANCH  20  23
ATOM     23  C   UNL     1     -38.177 162.727  -3.750  1.00  0.00    +0.033 C 
ATOM     24  C   UNL     1     -39.190 161.868  -3.536  1.00  0.00    +0.030 C 
BRANCH  24  25
ATOM     25  C   UNL     1     -39.179 160.824  -2.505  1.00  0.00    +0.063 A 
ATOM     26  C   UNL     1     -38.560 159.603  -2.758  1.00  0.00    +0.028 A 
ATOM     27  N   UNL     1     -39.785 161.100  -1.325  1.00  0.00    -0.257 NA
ATOM     28  C   UNL     1     -38.563 158.627  -1.764  1.00  0.00    +0.004 A 
ATOM     29  C   UNL     1     -39.773 160.135  -0.380  1.00  0.00    +0.111 A 
ATOM     30  C   UNL     1     -39.181 158.895  -0.549  1.00  0.00    +0.020 A 
ENDBRANCH  24  25
ENDBRANCH  20  23
ENDBRANCH   1  13
TORSDOF 5
ENDMDL
MODEL 4
REMARK VINA RESULT:    -9.598      3.998     10.527
REMARK INTER + INTRA:         -12.329
REMARK INTER:                 -11.943
REMARK INTRA:                  -0.386
REMARK UNBOUND:                 0.075
REMARK SMILES CNC(=O)c1ccccc1Sc1ccc2c(/C=C/c3ccccn3)n[nH]c2c1
REMARK SMILES IDX 11 1 10 2 5 3 6 4 7 5 9 6 8 7 3 8 2 9 4 10 1 11 12 13 13 14
REMARK SMILES IDX 28 15 14 16 27 17 15 18 26 19 16 20 25 21 17 23 18 24 19 25
REMARK SMILES IDX 20 26 24 27 21 28 23 29 22 30
REMARK H PARENT 2 12 26 22
ROOT
ATOM      1  S   UNL     1     -37.618 165.134  -9.741  1.00  0.00    -0.089 SA
ENDROOT
BRANCH   1   2
ATOM      2  C   UNL     1     -37.303 163.623 -10.654  1.00  0.00    +0.025 A 
ATOM      3  C   UNL     1     -36.074 163.305 -11.258  1.00  0.00    +0.053 A 
ATOM      4  C   UNL     1     -35.946 162.129 -12.013  1.00  0.00    +0.015 A 
ATOM      5  C   UNL     1     -37.020 161.249 -12.142  1.00  0.00    +0.001 A 
ATOM      6  C   UNL     1     -38.373 162.723 -10.789  1.00  0.00    +0.016 A 
ATOM      7  C   UNL     1     -38.232 161.544 -11.525  1.00  0.00    +0.001 A 
BRANCH   3   8
ATOM      8  C   UNL     1     -34.865 164.166 -11.184  1.00  0.00    +0.252 C 
ATOM      9  N   UNL     1     -34.891 165.321 -11.933  1.00  0.00    -0.355 N 
ATOM     10  O   UNL     1     -33.930 163.840 -10.460  1.00  0.00    -0.269 OA
ATOM     11  C   UNL     1     -33.736 166.178 -12.022  1.00  0.00    +0.143 C 
ATOM     12  H   UNL     1     -35.628 165.435 -12.619  1.00  0.00    +0.163 HD
ENDBRANCH   3   8
ENDBRANCH   1   2
BRANCH   1  13
ATOM     13  C   UNL     1     -37.901 164.463  -8.106  1.00  0.00    +0.014 A 
ATOM     14  C   UNL     1     -37.730 163.091  -7.893  1.00  0.00    +0.016 A 
ATOM     15  C   UNL     1     -38.271 165.306  -7.049  1.00  0.00    +0.043 A 
ATOM     16  C   UNL     1     -37.940 162.524  -6.628  1.00  0.00    +0.014 A 
ATOM     17  C   UNL     1     -38.482 164.715  -5.798  1.00  0.00    +0.067 A 
ATOM     18  C   UNL     1     -38.329 163.356  -5.559  1.00  0.00    +0.027 A 
ATOM     19  N   UNL     1     -38.860 165.251  -4.598  1.00  0.00    -0.277 N 
ATOM     20  C   UNL     1     -38.635 163.189  -4.173  1.00  0.00    +0.093 A 
ATOM     21  N   UNL     1     -38.956 164.359  -3.600  1.00  0.00    -0.175 NA
ATOM     22  H   UNL     1     -39.067 166.223  -4.396  1.00  0.00    +0.190 HD
BRANCH  20  23
ATOM     23  C   UNL     1     -38.604 161.936  -3.477  1.00  0.00    +0.033 C 
ATOM     24  C   UNL     1     -39.089 161.735  -2.238  1.00  0.00    +0.030 C 
BRANCH  24  25
ATOM     25  C   UNL     1     -39.051 160.446  -1.538  1.00  0.00    +0.063 A 
ATOM     26  C   UNL     1     -38.411 159.357  -2.122  1.00  0.00    +0.028 A 
ATOM     27  N   UNL     1     -39.654 160.371  -0.327  1.00  0.00    -0.257 NA
ATOM     28  C   UNL     1     -38.388 158.142  -1.439  1.00  0.00    +0.004 A 
ATOM     29  C   UNL     1     -39.616 159.181   0.312  1.00  0.00    +0.111 A 
ATOM     30  C   UNL     1     -39.002 158.050  -0.197  1.00  0.00    +0.020 A 
ENDBRANCH  24  25
ENDBRANCH  20  23
ENDBRANCH   1  13
TORSDOF 5
ENDMDL
MODEL 5
REMARK VINA RESULT:    -9.262      2.603      3.994
REMARK INTER + INTRA:         -11.895
REMARK INTER:                 -12.375
REMARK INTRA:                   0.480
REMARK UNBOUND:                 0.075
REMARK SMILES CNC(=O)c1ccccc1Sc1ccc2c(/C=C/c3ccccn3)n[nH]c2c1
REMARK SMILES IDX 11 1 10 2 5 3 6 4 7 5 9 6 8 7 3 8 2 9 4 10 1 11 12 13 13 14
REMARK SMILES IDX 28 15 14 16 27 17 15 18 26 19 16 20 25 21 17 23 18 24 19 25
REMARK SMILES IDX 20 26 24 27 21 28 23 29 22 30
REMARK H PARENT 2 12 26 22
ROOT
ATOM      1  S   UNL     1     -39.251 162.466  -1.261  1.00  0.00    -0.089 SA
ENDROOT
BRANCH   1   2
ATOM      2  C   UNL     1     -39.140 160.677  -1.261  1.00  0.00    +0.025 A 
ATOM      3  C   UNL     1     -40.040 159.829  -0.591  1.00  0.00    +0.053 A 
ATOM      4  C   UNL     1     -39.828 158.440  -0.591  1.00  0.00    +0.015 A 
ATOM      5  C   UNL     1     -38.751 157.888  -1.282  1.00  0.00    +0.001 A 
ATOM      6  C   UNL     1     -38.064 160.103  -1.958  1.00  0.00    +0.016 A 
ATOM      7  C   UNL     1     -37.873 158.719  -1.970  1.00  0.00    +0.001 A 
BRANCH   3   8
ATOM      8  C   UNL     1     -41.220 160.307   0.174  1.00  0.00    +0.252 C 
ATOM      9  N   UNL     1     -41.565 159.574   1.288  1.00  0.00    -0.355 N 
ATOM     10  O   UNL     1     -41.808 161.321  -0.187  1.00  0.00    -0.269 OA
ATOM     11  C   UNL     1     -42.751 159.881   2.045  1.00  0.00    +0.143 C 
ATOM     12  H   UNL     1     -41.129 158.670   1.423  1.00  0.00    +0.163 HD
ENDBRANCH   3   8
ENDBRANCH   1   2
BRANCH   1  13
ATOM     13  C   UNL     1     -38.909 162.805  -2.985  1.00  0.00    +0.014 A 
ATOM     14  C   UNL     1     -38.883 161.744  -3.896  1.00  0.00    +0.016 A 
ATOM     15  C   UNL     1     -38.688 164.120  -3.417  1.00  0.00    +0.043 A 
ATOM     16  C   UNL     1     -38.620 161.965  -5.255  1.00  0.00    +0.014 A 
ATOM     17  C   UNL     1     -38.419 164.314  -4.777  1.00  0.00    +0.067 A 
ATOM     18  C   UNL     1     -38.379 163.280  -5.703  1.00  0.00    +0.027 A 
ATOM     19  N   UNL     1     -38.150 165.448  -5.492  1.00  0.00    -0.277 N 
ATOM     20  C   UNL     1     -38.082 163.912  -6.950  1.00  0.00    +0.093 A 
ATOM     21  N   UNL     1     -37.946 165.240  -6.802  1.00  0.00    -0.175 NA
ATOM     22  H   UNL     1     -38.090 166.397  -5.141  1.00  0.00    +0.190 HD
BRANCH  20  23
ATOM     23  C   UNL     1     -37.945 163.226  -8.200  1.00  0.00    +0.033 C 
ATOM     24  C   UNL     1     -37.090 162.213  -8.429  1.00  0.00    +0.030 C 
BRANCH  24  25
ATOM     25  C   UNL     1     -36.962 161.518  -9.716  1.00  0.00    +0.063 A 
ATOM     26  C   UNL     1     -36.883 160.129  -9.751  1.00  0.00    +0.028 A 
ATOM     27  N   UNL     1     -36.925 162.276 -10.838  1.00  0.00    -0.257 NA
ATOM     28  C   UNL     1     -36.761 159.491 -10.983  1.00  0.00    +0.004 A 
ATOM     29  C   UNL     1     -36.807 161.632 -12.019  1.00  0.00    +0.111 A 
ATOM     30  C   UNL     1     -36.722 160.255 -12.143  1.00  0.00    +0.020 A 
ENDBRANCH  24  25
ENDBRANCH  20  23
ENDBRANCH   1  13
TORSDOF 5
ENDMDL
MODEL 6
REMARK VINA RESULT:    -9.249      2.944      5.830
REMARK INTER + INTRA:         -11.877
REMARK INTER:                 -11.238
REMARK INTRA:                  -0.639
REMARK UNBOUND:                 0.075
REMARK SMILES CNC(=O)c1ccccc1Sc1ccc2c(/C=C/c3ccccn3)n[nH]c2c1
REMARK SMILES IDX 11 1 10 2 5 3 6 4 7 5 9 6 8 7 3 8 2 9 4 10 1 11 12 13 13 14
REMARK SMILES IDX 28 15 14 16 27 17 15 18 26 19 16 20 25 21 17 23 18 24 19 25
REMARK SMILES IDX 20 26 24 27 21 28 23 29 22 30
REMARK H PARENT 2 12 26 22
ROOT
ATOM      1  S   UNL     1     -37.979 156.136   3.490  1.00  0.00    -0.089 SA
ENDROOT
BRANCH   1   2
ATOM      2  C   UNL     1     -37.289 157.085   4.845  1.00  0.00    +0.025 A 
ATOM      3  C   UNL     1     -36.873 156.531   6.069  1.00  0.00    +0.053 A 
ATOM      4  C   UNL     1     -36.411 157.367   7.098  1.00  0.00    +0.015 A 
ATOM      5  C   UNL     1     -36.327 158.745   6.907  1.00  0.00    +0.001 A 
ATOM      6  C   UNL     1     -37.191 158.476   4.667  1.00  0.00    +0.016 A 
ATOM      7  C   UNL     1     -36.712 159.298   5.689  1.00  0.00    +0.001 A 
BRANCH   3   8
ATOM      8  C   UNL     1     -36.917 155.078   6.380  1.00  0.00    +0.252 C 
ATOM      9  N   UNL     1     -35.829 154.335   5.981  1.00  0.00    -0.355 N 
ATOM     10  O   UNL     1     -37.878 154.616   6.987  1.00  0.00    -0.269 OA
ATOM     11  C   UNL     1     -35.807 152.903   6.135  1.00  0.00    +0.143 C 
ATOM     12  H   UNL     1     -35.159 154.761   5.353  1.00  0.00    +0.163 HD
ENDBRANCH   3   8
ENDBRANCH   1   2
BRANCH   1  13
ATOM     13  C   UNL     1     -38.586 157.461   2.451  1.00  0.00    +0.014 A 
ATOM     14  C   UNL     1     -37.740 158.010   1.483  1.00  0.00    +0.016 A 
ATOM     15  C   UNL     1     -39.900 157.928   2.596  1.00  0.00    +0.043 A 
ATOM     16  C   UNL     1     -38.175 159.050   0.648  1.00  0.00    +0.014 A 
ATOM     17  C   UNL     1     -40.309 158.970   1.756  1.00  0.00    +0.067 A 
ATOM     18  C   UNL     1     -39.488 159.542   0.792  1.00  0.00    +0.027 A 
ATOM     19  N   UNL     1     -41.495 159.643   1.662  1.00  0.00    -0.277 N 
ATOM     20  C   UNL     1     -40.292 160.548   0.173  1.00  0.00    +0.093 A 
ATOM     21  N   UNL     1     -41.518 160.595   0.717  1.00  0.00    -0.175 NA
ATOM     22  H   UNL     1     -42.330 159.499   2.219  1.00  0.00    +0.190 HD
BRANCH  20  23
ATOM     23  C   UNL     1     -39.853 161.400  -0.893  1.00  0.00    +0.033 C 
ATOM     24  C   UNL     1     -39.508 160.975  -2.122  1.00  0.00    +0.030 C 
BRANCH  24  25
ATOM     25  C   UNL     1     -39.062 161.860  -3.204  1.00  0.00    +0.063 A 
ATOM     26  C   UNL     1     -38.746 161.329  -4.451  1.00  0.00    +0.028 A 
ATOM     27  N   UNL     1     -38.975 163.185  -2.936  1.00  0.00    -0.257 NA
ATOM     28  C   UNL     1     -38.324 162.188  -5.463  1.00  0.00    +0.004 A 
ATOM     29  C   UNL     1     -38.563 163.995  -3.936  1.00  0.00    +0.111 A 
ATOM     30  C   UNL     1     -38.230 163.549  -5.204  1.00  0.00    +0.020 A 
ENDBRANCH  24  25
ENDBRANCH  20  23
ENDBRANCH   1  13
TORSDOF 5
ENDMDL
MODEL 7
REMARK VINA RESULT:    -9.172      2.574      3.878
REMARK INTER + INTRA:         -11.778
REMARK INTER:                 -11.994
REMARK INTRA:                   0.216
REMARK UNBOUND:                 0.075
REMARK SMILES CNC(=O)c1ccccc1Sc1ccc2c(/C=C/c3ccccn3)n[nH]c2c1
REMARK SMILES IDX 11 1 10 2 5 3 6 4 7 5 9 6 8 7 3 8 2 9 4 10 1 11 12 13 13 14
REMARK SMILES IDX 28 15 14 16 27 17 15 18 26 19 16 20 25 21 17 23 18 24 19 25
REMARK SMILES IDX 20 26 24 27 21 28 23 29 22 30
REMARK H PARENT 2 12 26 22
ROOT
ATOM      1  S   UNL     1     -39.353 162.542  -1.336  1.00  0.00    -0.089 SA
ENDROOT
BRANCH   1   2
ATOM      2  C   UNL     1     -39.200 160.760  -1.454  1.00  0.00    +0.025 A 
ATOM      3  C   UNL     1     -40.114 159.849  -0.894  1.00  0.00    +0.053 A 
ATOM      4  C   UNL     1     -39.870 158.468  -0.978  1.00  0.00    +0.015 A 
ATOM      5  C   UNL     1     -38.745 157.987  -1.644  1.00  0.00    +0.001 A 
ATOM      6  C   UNL     1     -38.075 160.257  -2.127  1.00  0.00    +0.016 A 
ATOM      7  C   UNL     1     -37.850 158.882  -2.224  1.00  0.00    +0.001 A 
BRANCH   3   8
ATOM      8  C   UNL     1     -41.346 160.249  -0.165  1.00  0.00    +0.252 C 
ATOM      9  N   UNL     1     -41.513 159.713   1.092  1.00  0.00    -0.355 N 
ATOM     10  O   UNL     1     -42.128 161.040  -0.682  1.00  0.00    -0.269 OA
ATOM     11  C   UNL     1     -42.717 159.945   1.848  1.00  0.00    +0.143 C 
ATOM     12  H   UNL     1     -40.906 158.953   1.377  1.00  0.00    +0.163 HD
ENDBRANCH   3   8
ENDBRANCH   1   2
BRANCH   1  13
ATOM     13  C   UNL     1     -38.976 163.004  -3.024  1.00  0.00    +0.014 A 
ATOM     14  C   UNL     1     -38.741 164.349  -3.326  1.00  0.00    +0.016 A 
ATOM     15  C   UNL     1     -38.898 162.025  -4.024  1.00  0.00    +0.043 A 
ATOM     16  C   UNL     1     -38.441 164.754  -4.635  1.00  0.00    +0.014 A 
ATOM     17  C   UNL     1     -38.605 162.456  -5.324  1.00  0.00    +0.067 A 
ATOM     18  C   UNL     1     -38.376 163.784  -5.656  1.00  0.00    +0.027 A 
ATOM     19  N   UNL     1     -38.480 161.765  -6.498  1.00  0.00    -0.277 N 
ATOM     20  C   UNL     1     -38.116 163.774  -7.061  1.00  0.00    +0.093 A 
ATOM     21  N   UNL     1     -38.182 162.530  -7.559  1.00  0.00    -0.175 NA
ATOM     22  H   UNL     1     -38.588 160.767  -6.639  1.00  0.00    +0.190 HD
BRANCH  20  23
ATOM     23  C   UNL     1     -37.820 164.938  -7.844  1.00  0.00    +0.033 C 
ATOM     24  C   UNL     1     -37.475 164.920  -9.144  1.00  0.00    +0.030 C 
BRANCH  24  25
ATOM     25  C   UNL     1     -37.176 166.120  -9.933  1.00  0.00    +0.063 A 
ATOM     26  C   UNL     1     -35.990 166.198 -10.658  1.00  0.00    +0.028 A 
ATOM     27  N   UNL     1     -38.088 167.122  -9.922  1.00  0.00    -0.257 NA
ATOM     28  C   UNL     1     -35.727 167.348 -11.400  1.00  0.00    +0.004 A 
ATOM     29  C   UNL     1     -37.807 168.225 -10.650  1.00  0.00    +0.111 A 
ATOM     30  C   UNL     1     -36.652 168.384 -11.398  1.00  0.00    +0.020 A 
ENDBRANCH  24  25
ENDBRANCH  20  23
ENDBRANCH   1  13
TORSDOF 5
ENDMDL
MODEL 8
REMARK VINA RESULT:    -9.002      3.808     10.583
REMARK INTER + INTRA:         -11.558
REMARK INTER:                 -11.991
REMARK INTRA:                   0.433
REMARK UNBOUND:                 0.075
REMARK SMILES CNC(=O)c1ccccc1Sc1ccc2c(/C=C/c3ccccn3)n[nH]c2c1
REMARK SMILES IDX 11 1 10 2 5 3 6 4 7 5 9 6 8 7 3 8 2 9 4 10 1 11 12 13 13 14
REMARK SMILES IDX 28 15 14 16 27 17 15 18 26 19 16 20 25 21 17 23 18 24 19 25
REMARK SMILES IDX 20 26 24 27 21 28 23 29 22 30
REMARK H PARENT 2 12 26 22
ROOT
ATOM      1  S   UNL     1     -37.869 165.763  -7.188  1.00  0.00    -0.089 SA
ENDROOT
BRANCH   1   2
ATOM      2  C   UNL     1     -37.906 164.740  -8.660  1.00  0.00    +0.025 A 
ATOM      3  C   UNL     1     -37.598 165.201  -9.952  1.00  0.00    +0.053 A 
ATOM      4  C   UNL     1     -37.724 164.339 -11.054  1.00  0.00    +0.015 A 
ATOM      5  C   UNL     1     -38.120 163.015 -10.876  1.00  0.00    +0.001 A 
ATOM      6  C   UNL     1     -38.296 163.400  -8.498  1.00  0.00    +0.016 A 
ATOM      7  C   UNL     1     -38.400 162.544  -9.596  1.00  0.00    +0.001 A 
BRANCH   3   8
ATOM      8  C   UNL     1     -37.165 166.589 -10.258  1.00  0.00    +0.252 C 
ATOM      9  N   UNL     1     -35.903 166.733 -10.787  1.00  0.00    -0.355 N 
ATOM     10  O   UNL     1     -37.935 167.523 -10.059  1.00  0.00    -0.269 OA
ATOM     11  C   UNL     1     -35.337 168.036 -11.024  1.00  0.00    +0.143 C 
ATOM     12  H   UNL     1     -35.279 165.934 -10.771  1.00  0.00    +0.163 HD
ENDBRANCH   3   8
ENDBRANCH   1   2
BRANCH   1  13
ATOM     13  C   UNL     1     -38.210 164.530  -5.936  1.00  0.00    +0.014 A 
ATOM     14  C   UNL     1     -39.063 164.854  -4.876  1.00  0.00    +0.016 A 
ATOM     15  C   UNL     1     -37.645 163.251  -6.031  1.00  0.00    +0.043 A 
ATOM     16  C   UNL     1     -39.358 163.917  -3.874  1.00  0.00    +0.014 A 
ATOM     17  C   UNL     1     -37.948 162.337  -5.015  1.00  0.00    +0.067 A 
ATOM     18  C   UNL     1     -38.783 162.632  -3.945  1.00  0.00    +0.027 A 
ATOM     19  N   UNL     1     -37.549 161.045  -4.813  1.00  0.00    -0.277 N 
ATOM     20  C   UNL     1     -38.820 161.436  -3.164  1.00  0.00    +0.093 A 
ATOM     21  N   UNL     1     -38.060 160.474  -3.711  1.00  0.00    -0.175 NA
ATOM     22  H   UNL     1     -36.927 160.495  -5.395  1.00  0.00    +0.190 HD
BRANCH  20  23
ATOM     23  C   UNL     1     -39.569 161.275  -1.953  1.00  0.00    +0.033 C 
ATOM     24  C   UNL     1     -39.999 160.096  -1.468  1.00  0.00    +0.030 C 
BRANCH  24  25
ATOM     25  C   UNL     1     -40.764 159.947  -0.225  1.00  0.00    +0.063 A 
ATOM     26  C   UNL     1     -42.007 160.562  -0.096  1.00  0.00    +0.028 A 
ATOM     27  N   UNL     1     -40.217 159.202   0.764  1.00  0.00    -0.257 NA
ATOM     28  C   UNL     1     -42.715 160.407   1.094  1.00  0.00    +0.004 A 
ATOM     29  C   UNL     1     -40.926 159.069   1.907  1.00  0.00    +0.111 A 
ATOM     30  C   UNL     1     -42.167 159.646   2.118  1.00  0.00    +0.020 A 
ENDBRANCH  24  25
ENDBRANCH  20  23
ENDBRANCH   1  13
TORSDOF 5
ENDMDL
MODEL 9
REMARK VINA RESULT:    -8.852      6.723     10.940
REMARK INTER + INTRA:         -11.365
REMARK INTER:                 -11.349
REMARK INTRA:                  -0.016
REMARK UNBOUND:                 0.075
REMARK SMILES CNC(=O)c1ccccc1Sc1ccc2c(/C=C/c3ccccn3)n[nH]c2c1
REMARK SMILES IDX 11 1 10 2 5 3 6 4 7 5 9 6 8 7 3 8 2 9 4 10 1 11 12 13 13 14
REMARK SMILES IDX 28 15 14 16 27 17 15 18 26 19 16 20 25 21 17 23 18 24 19 25
REMARK SMILES IDX 20 26 24 27 21 28 23 29 22 30
REMARK H PARENT 2 12 26 22
ROOT
ATOM      1  S   UNL     1     -35.450 151.778   6.240  1.00  0.00    -0.089 SA
ENDROOT
BRANCH   1   2
ATOM      2  C   UNL     1     -36.908 150.850   5.764  1.00  0.00    +0.025 A 
ATOM      3  C   UNL     1     -36.888 149.715   4.933  1.00  0.00    +0.053 A 
ATOM      4  C   UNL     1     -38.092 149.097   4.559  1.00  0.00    +0.015 A 
ATOM      5  C   UNL     1     -39.312 149.576   5.034  1.00  0.00    +0.001 A 
ATOM      6  C   UNL     1     -38.146 151.316   6.239  1.00  0.00    +0.016 A 
ATOM      7  C   UNL     1     -39.337 150.682   5.878  1.00  0.00    +0.001 A 
BRANCH   3   8
ATOM      8  C   UNL     1     -35.648 149.118   4.373  1.00  0.00    +0.252 C 
ATOM      9  N   UNL     1     -35.505 149.179   3.004  1.00  0.00    -0.355 N 
ATOM     10  O   UNL     1     -34.812 148.634   5.128  1.00  0.00    -0.269 OA
ATOM     11  C   UNL     1     -34.397 148.542   2.341  1.00  0.00    +0.143 C 
ATOM     12  H   UNL     1     -36.307 149.451   2.448  1.00  0.00    +0.163 HD
ENDBRANCH   3   8
ENDBRANCH   1   2
BRANCH   1  13
ATOM     13  C   UNL     1     -35.888 153.397   5.614  1.00  0.00    +0.014 A 
ATOM     14  C   UNL     1     -37.198 153.631   5.186  1.00  0.00    +0.016 A 
ATOM     15  C   UNL     1     -34.932 154.421   5.572  1.00  0.00    +0.043 A 
ATOM     16  C   UNL     1     -37.584 154.884   4.689  1.00  0.00    +0.014 A 
ATOM     17  C   UNL     1     -35.339 155.661   5.065  1.00  0.00    +0.067 A 
ATOM     18  C   UNL     1     -36.630 155.920   4.624  1.00  0.00    +0.027 A 
ATOM     19  N   UNL     1     -34.655 156.830   4.880  1.00  0.00    -0.277 N 
ATOM     20  C   UNL     1     -36.609 157.285   4.201  1.00  0.00    +0.093 A 
ATOM     21  N   UNL     1     -35.392 157.827   4.366  1.00  0.00    -0.175 NA
ATOM     22  H   UNL     1     -33.678 157.011   5.085  1.00  0.00    +0.190 HD
BRANCH  20  23
ATOM     23  C   UNL     1     -37.737 157.991   3.669  1.00  0.00    +0.033 C 
ATOM     24  C   UNL     1     -38.190 157.873   2.408  1.00  0.00    +0.030 C 
BRANCH  24  25
ATOM     25  C   UNL     1     -39.347 158.602   1.878  1.00  0.00    +0.063 A 
ATOM     26  C   UNL     1     -40.606 158.414   2.441  1.00  0.00    +0.028 A 
ATOM     27  N   UNL     1     -39.136 159.447   0.839  1.00  0.00    -0.257 NA
ATOM     28  C   UNL     1     -41.690 159.117   1.921  1.00  0.00    +0.004 A 
ATOM     29  C   UNL     1     -40.205 160.115   0.354  1.00  0.00    +0.111 A 
ATOM     30  C   UNL     1     -41.489 159.986   0.856  1.00  0.00    +0.020 A 
ENDBRANCH  24  25
ENDBRANCH  20  23
ENDBRANCH   1  13
TORSDOF 5
ENDMDL
MODEL 10
REMARK VINA RESULT:    -8.596      7.182     11.721
REMARK INTER + INTRA:         -11.034
REMARK INTER:                 -10.641
REMARK INTRA:                  -0.393
REMARK UNBOUND:                 0.075
REMARK SMILES CNC(=O)c1ccccc1Sc1ccc2c(/C=C/c3ccccn3)n[nH]c2c1
REMARK SMILES IDX 11 1 10 2 5 3 6 4 7 5 9 6 8 7 3 8 2 9 4 10 1 11 12 13 13 14
REMARK SMILES IDX 28 15 14 16 27 17 15 18 26 19 16 20 25 21 17 23 18 24 19 25
REMARK SMILES IDX 20 26 24 27 21 28 23 29 22 30
REMARK H PARENT 2 12 26 22
ROOT
ATOM      1  S   UNL     1     -35.652 152.150   7.885  1.00  0.00    -0.089 SA
ENDROOT
BRANCH   1   2
ATOM      2  C   UNL     1     -36.143 150.759   6.866  1.00  0.00    +0.025 A 
ATOM      3  C   UNL     1     -35.953 149.412   7.220  1.00  0.00    +0.053 A 
ATOM      4  C   UNL     1     -36.308 148.393   6.322  1.00  0.00    +0.015 A 
ATOM      5  C   UNL     1     -36.882 148.702   5.090  1.00  0.00    +0.001 A 
ATOM      6  C   UNL     1     -36.730 151.053   5.624  1.00  0.00    +0.016 A 
ATOM      7  C   UNL     1     -37.098 150.033   4.744  1.00  0.00    +0.001 A 
BRANCH   3   8
ATOM      8  C   UNL     1     -35.353 148.967   8.505  1.00  0.00    +0.252 C 
ATOM      9  N   UNL     1     -34.032 148.580   8.461  1.00  0.00    -0.355 N 
ATOM     10  O   UNL     1     -36.026 148.989   9.530  1.00  0.00    -0.269 OA
ATOM     11  C   UNL     1     -33.376 148.032   9.620  1.00  0.00    +0.143 C 
ATOM     12  H   UNL     1     -33.600 148.443   7.554  1.00  0.00    +0.163 HD
ENDBRANCH   3   8
ENDBRANCH   1   2
BRANCH   1  13
ATOM     13  C   UNL     1     -36.098 153.506   6.807  1.00  0.00    +0.014 A 
ATOM     14  C   UNL     1     -37.450 153.779   6.578  1.00  0.00    +0.016 A 
ATOM     15  C   UNL     1     -35.102 154.296   6.215  1.00  0.00    +0.043 A 
ATOM     16  C   UNL     1     -37.843 154.833   5.741  1.00  0.00    +0.014 A 
ATOM     17  C   UNL     1     -35.520 155.337   5.378  1.00  0.00    +0.067 A 
ATOM     18  C   UNL     1     -36.854 155.626   5.125  1.00  0.00    +0.027 A 
ATOM     19  N   UNL     1     -34.810 156.255   4.654  1.00  0.00    -0.277 N 
ATOM     20  C   UNL     1     -36.827 156.746   4.238  1.00  0.00    +0.093 A 
ATOM     21  N   UNL     1     -35.568 157.119   3.961  1.00  0.00    -0.175 NA
ATOM     22  H   UNL     1     -33.802 156.343   4.592  1.00  0.00    +0.190 HD
BRANCH  20  23
ATOM     23  C   UNL     1     -37.991 157.394   3.707  1.00  0.00    +0.033 C 
ATOM     24  C   UNL     1     -38.058 157.978   2.497  1.00  0.00    +0.030 C 
BRANCH  24  25
ATOM     25  C   UNL     1     -39.257 158.637   1.966  1.00  0.00    +0.063 A 
ATOM     26  C   UNL     1     -39.143 159.556   0.927  1.00  0.00    +0.028 A 
ATOM     27  N   UNL     1     -40.450 158.314   2.523  1.00  0.00    -0.257 NA
ATOM     28  C   UNL     1     -40.295 160.170   0.440  1.00  0.00    +0.004 A 
ATOM     29  C   UNL     1     -41.550 158.925   2.031  1.00  0.00    +0.111 A 
ATOM     30  C   UNL     1     -41.525 159.850   1.001  1.00  0.00    +0.020 A 
ENDBRANCH  24  25
ENDBRANCH  20  23
ENDBRANCH   1  13
TORSDOF 5
ENDMDL
