REMARK SMILES CC1(COc2ccc3c(c2)ncn3-c2ccc3cccc(N4CCC(N)CC4)c3n2)COC1
REMARK SMILES IDX 5 1 6 2 7 3 8 4 9 5 10 6 11 7 12 8 13 9 4 10 3 11 2 12 31 13
REMARK SMILES IDX 33 14 32 15 1 16 14 17 15 18 30 19 16 20 29 21 17 22 21 23
REMARK SMILES IDX 18 24 20 25 19 26 22 27 23 28 28 29 24 30 27 31 25 32 26 33
REMARK H PARENT 26 34 26 35
ROOT
ATOM      1  C   UNL     1       4.086  -0.021   0.132  1.00  0.00    +0.121 A 
ATOM      2  C   UNL     1       3.619  -1.326   0.291  1.00  0.00    +0.049 A 
ATOM      3  C   UNL     1       2.259  -1.647   0.183  1.00  0.00    +0.033 A 
ATOM      4  C   UNL     1       1.362  -0.609  -0.115  1.00  0.00    +0.075 A 
ATOM      5  C   UNL     1       1.811   0.711  -0.229  1.00  0.00    +0.093 A 
ATOM      6  C   UNL     1       3.181   1.010  -0.121  1.00  0.00    +0.077 A 
ATOM      7  N   UNL     1       0.775   1.582  -0.418  1.00  0.00    -0.236 NA
ATOM      8  C   UNL     1      -0.299   0.829  -0.415  1.00  0.00    +0.206 A 
ATOM      9  N   UNL     1      -0.015  -0.518  -0.305  1.00  0.00    -0.283 N 
ENDROOT
BRANCH   1  10
ATOM     10  O   UNL     1       5.441   0.117   0.266  1.00  0.00    -0.493 OA
BRANCH  10  11
ATOM     11  C   UNL     1       5.982   1.431   0.115  1.00  0.00    +0.241 C 
BRANCH  11  12
ATOM     12  C   UNL     1       7.500   1.389   0.279  1.00  0.00    +0.048 C 
ATOM     13  C   UNL     1       8.252   0.307  -0.521  1.00  0.00    +0.172 C 
ATOM     14  C   UNL     1       8.042   0.622   1.503  1.00  0.00    +0.172 C 
ATOM     15  O   UNL     1       8.993  -0.089   0.665  1.00  0.00    -0.380 OA
ATOM     16  C   UNL     1       8.118   2.780   0.126  1.00  0.00    +0.020 C 
ENDBRANCH  11  12
ENDBRANCH  10  11
ENDBRANCH   1  10
BRANCH   9  17
ATOM     17  C   UNL     1      -1.019  -1.527  -0.393  1.00  0.00    +0.139 A 
ATOM     18  C   UNL     1      -0.702  -2.853  -0.621  1.00  0.00    +0.048 A 
ATOM     19  N   UNL     1      -2.307  -1.107  -0.284  1.00  0.00    -0.228 NA
ATOM     20  C   UNL     1      -1.740  -3.777  -0.705  1.00  0.00    +0.014 A 
ATOM     21  C   UNL     1      -3.331  -1.994  -0.354  1.00  0.00    +0.096 A 
ATOM     22  C   UNL     1      -3.070  -3.363  -0.571  1.00  0.00    +0.002 A 
ATOM     23  C   UNL     1      -4.685  -1.590  -0.228  1.00  0.00    +0.063 A 
ATOM     24  C   UNL     1      -4.117  -4.295  -0.664  1.00  0.00    +0.010 A 
ATOM     25  C   UNL     1      -5.718  -2.540  -0.334  1.00  0.00    +0.028 A 
ATOM     26  C   UNL     1      -5.439  -3.884  -0.548  1.00  0.00    +0.003 A 
BRANCH  23  27
ATOM     27  N   UNL     1      -5.109  -0.248  -0.004  1.00  0.00    -0.370 N 
ATOM     28  C   UNL     1      -4.979   0.572  -1.224  1.00  0.00    +0.118 C 
ATOM     29  C   UNL     1      -4.520   0.367   1.190  1.00  0.00    +0.118 C 
ATOM     30  C   UNL     1      -5.111   2.067  -0.902  1.00  0.00    +0.040 C 
ATOM     31  C   UNL     1      -5.352   1.598   1.570  1.00  0.00    +0.040 C 
ATOM     32  C   UNL     1      -5.972   2.283   0.342  1.00  0.00    +0.054 C 
BRANCH  32  33
ATOM     33  N   UNL     1      -6.168   3.713   0.606  1.00  0.00    -0.328 NA
ATOM     34  H   UNL     1      -6.646   4.143  -0.185  1.00  0.00    +0.119 HD
ATOM     35  H   UNL     1      -6.786   3.826   1.409  1.00  0.00    +0.119 HD
ENDBRANCH  32  33
ENDBRANCH  23  27
ENDBRANCH   9  17
TORSDOF 6
