MODEL 1
REMARK VINA RESULT:   -10.097      0.000      0.000
REMARK INTER + INTRA:         -14.262
REMARK INTER:                 -13.344
REMARK INTRA:                  -0.918
REMARK UNBOUND:                -0.918
REMARK SMILES CC1(COc2ccc3c(c2)ncn3-c2ccc3cccc(N4CCC(N)CC4)c3n2)COC1
REMARK SMILES IDX 5 1 6 2 7 3 8 4 9 5 10 6 11 7 12 8 13 9 4 10 3 11 2 12 31 13
REMARK SMILES IDX 33 14 32 15 1 16 14 17 15 18 30 19 16 20 29 21 17 22 21 23
REMARK SMILES IDX 18 24 20 25 19 26 22 27 23 28 28 29 24 30 27 31 25 32 26 33
REMARK H PARENT 26 34 26 35
ROOT
ATOM      1  C   UNL     1     -39.055 162.617  -2.186  1.00  0.00    +0.121 A 
ATOM      2  C   UNL     1     -38.976 161.499  -3.017  1.00  0.00    +0.049 A 
ATOM      3  C   UNL     1     -38.663 161.607  -4.379  1.00  0.00    +0.033 A 
ATOM      4  C   UNL     1     -38.405 162.887  -4.893  1.00  0.00    +0.075 A 
ATOM      5  C   UNL     1     -38.528 164.020  -4.082  1.00  0.00    +0.093 A 
ATOM      6  C   UNL     1     -38.839 163.889  -2.717  1.00  0.00    +0.077 A 
ATOM      7  N   UNL     1     -38.337 165.172  -4.791  1.00  0.00    -0.236 NA
ATOM      8  C   UNL     1     -38.108 164.774  -6.020  1.00  0.00    +0.206 A 
ATOM      9  N   UNL     1     -38.065 163.399  -6.144  1.00  0.00    -0.283 N 
ENDROOT
BRANCH   1  10
ATOM     10  O   UNL     1     -39.368 162.334  -0.884  1.00  0.00    -0.493 OA
BRANCH  10  11
ATOM     11  C   UNL     1     -38.636 161.284  -0.249  1.00  0.00    +0.241 C 
BRANCH  11  12
ATOM     12  C   UNL     1     -39.588 160.158   0.152  1.00  0.00    +0.048 C 
ATOM     13  C   UNL     1     -39.350 159.511   1.531  1.00  0.00    +0.172 C 
ATOM     14  C   UNL     1     -39.255 158.749  -0.380  1.00  0.00    +0.172 C 
ATOM     15  O   UNL     1     -39.429 158.182   0.947  1.00  0.00    -0.380 OA
ATOM     16  C   UNL     1     -41.048 160.552  -0.077  1.00  0.00    +0.020 C 
ENDBRANCH  11  12
ENDBRANCH  10  11
ENDBRANCH   1  10
BRANCH   9  17
ATOM     17  C   UNL     1     -37.720 162.746  -7.363  1.00  0.00    +0.139 A 
ATOM     18  C   UNL     1     -37.642 161.369  -7.456  1.00  0.00    +0.048 A 
ATOM     19  N   UNL     1     -37.430 163.552  -8.418  1.00  0.00    -0.228 NA
ATOM     20  C   UNL     1     -37.287 160.806  -8.679  1.00  0.00    +0.014 A 
ATOM     21  C   UNL     1     -37.092 163.022  -9.620  1.00  0.00    +0.096 A 
ATOM     22  C   UNL     1     -37.009 161.623  -9.781  1.00  0.00    +0.002 A 
ATOM     23  C   UNL     1     -36.799 163.836 -10.745  1.00  0.00    +0.063 A 
ATOM     24  C   UNL     1     -36.644 161.055 -11.012  1.00  0.00    +0.010 A 
ATOM     25  C   UNL     1     -36.427 163.244 -11.966  1.00  0.00    +0.028 A 
ATOM     26  C   UNL     1     -36.351 161.864 -12.103  1.00  0.00    +0.003 A 
BRANCH  23  27
ATOM     27  N   UNL     1     -36.842 165.260 -10.743  1.00  0.00    -0.370 N 
ATOM     28  C   UNL     1     -37.992 165.769 -11.516  1.00  0.00    +0.118 C 
ATOM     29  C   UNL     1     -35.565 165.891 -11.094  1.00  0.00    +0.118 C 
ATOM     30  C   UNL     1     -37.850 167.272 -11.794  1.00  0.00    +0.040 C 
ATOM     31  C   UNL     1     -35.601 167.356 -10.643  1.00  0.00    +0.040 C 
ATOM     32  C   UNL     1     -37.017 167.951 -10.707  1.00  0.00    +0.054 C 
BRANCH  32  33
ATOM     33  N   UNL     1     -36.947 169.400 -10.925  1.00  0.00    -0.328 NA
ATOM     34  H   UNL     1     -36.015 169.651 -11.254  1.00  0.00    +0.119 HD
ATOM     35  H   UNL     1     -37.592 169.661 -11.670  1.00  0.00    +0.119 HD
ENDBRANCH  32  33
ENDBRANCH  23  27
ENDBRANCH   9  17
TORSDOF 6
ENDMDL
MODEL 2
REMARK VINA RESULT:    -9.027      1.884      4.321
REMARK INTER + INTRA:         -12.848
REMARK INTER:                 -12.320
REMARK INTRA:                  -0.528
REMARK UNBOUND:                -0.918
REMARK SMILES CC1(COc2ccc3c(c2)ncn3-c2ccc3cccc(N4CCC(N)CC4)c3n2)COC1
REMARK SMILES IDX 5 1 6 2 7 3 8 4 9 5 10 6 11 7 12 8 13 9 4 10 3 11 2 12 31 13
REMARK SMILES IDX 33 14 32 15 1 16 14 17 15 18 30 19 16 20 29 21 17 22 21 23
REMARK SMILES IDX 18 24 20 25 19 26 22 27 23 28 28 29 24 30 27 31 25 32 26 33
REMARK H PARENT 26 34 26 35
ROOT
ATOM      1  C   UNL     1     -39.026 160.808  -3.586  1.00  0.00    +0.121 A 
ATOM      2  C   UNL     1     -38.891 160.563  -4.953  1.00  0.00    +0.049 A 
ATOM      3  C   UNL     1     -38.683 161.596  -5.877  1.00  0.00    +0.033 A 
ATOM      4  C   UNL     1     -38.590 162.907  -5.384  1.00  0.00    +0.075 A 
ATOM      5  C   UNL     1     -38.771 163.172  -4.022  1.00  0.00    +0.093 A 
ATOM      6  C   UNL     1     -38.976 162.119  -3.112  1.00  0.00    +0.077 A 
ATOM      7  N   UNL     1     -38.746 164.513  -3.761  1.00  0.00    -0.236 NA
ATOM      8  C   UNL     1     -38.561 165.077  -4.930  1.00  0.00    +0.206 A 
ATOM      9  N   UNL     1     -38.389 164.163  -5.951  1.00  0.00    -0.283 N 
ENDROOT
BRANCH   1  10
ATOM     10  O   UNL     1     -39.221 159.687  -2.825  1.00  0.00    -0.493 OA
BRANCH  10  11
ATOM     11  C   UNL     1     -38.240 159.396  -1.828  1.00  0.00    +0.241 C 
BRANCH  11  12
ATOM     12  C   UNL     1     -38.856 159.534  -0.438  1.00  0.00    +0.048 C 
ATOM     13  C   UNL     1     -40.365 159.842  -0.378  1.00  0.00    +0.172 C 
ATOM     14  C   UNL     1     -38.719 160.911   0.245  1.00  0.00    +0.172 C 
ATOM     15  O   UNL     1     -40.134 160.911   0.579  1.00  0.00    -0.380 OA
ATOM     16  C   UNL     1     -38.449 158.374   0.473  1.00  0.00    +0.020 C 
ENDBRANCH  11  12
ENDBRANCH  10  11
ENDBRANCH   1  10
BRANCH   9  17
ATOM     17  C   UNL     1     -38.062 164.550  -7.284  1.00  0.00    +0.139 A 
ATOM     18  C   UNL     1     -38.063 165.874  -7.680  1.00  0.00    +0.048 A 
ATOM     19  N   UNL     1     -37.793 163.542  -8.155  1.00  0.00    -0.228 NA
ATOM     20  C   UNL     1     -37.744 166.170  -9.003  1.00  0.00    +0.014 A 
ATOM     21  C   UNL     1     -37.471 163.811  -9.445  1.00  0.00    +0.096 A 
ATOM     22  C   UNL     1     -37.441 165.144  -9.905  1.00  0.00    +0.002 A 
ATOM     23  C   UNL     1     -37.169 162.783 -10.375  1.00  0.00    +0.063 A 
ATOM     24  C   UNL     1     -37.127 165.443 -11.241  1.00  0.00    +0.010 A 
ATOM     25  C   UNL     1     -36.867 163.106 -11.711  1.00  0.00    +0.028 A 
ATOM     26  C   UNL     1     -36.843 164.426 -12.143  1.00  0.00    +0.003 A 
BRANCH  23  27
ATOM     27  N   UNL     1     -37.155 161.392 -10.063  1.00  0.00    -0.370 N 
ATOM     28  C   UNL     1     -36.425 161.126  -8.809  1.00  0.00    +0.118 C 
ATOM     29  C   UNL     1     -36.743 160.540 -11.183  1.00  0.00    +0.118 C 
ATOM     30  C   UNL     1     -36.123 159.629  -8.652  1.00  0.00    +0.040 C 
ATOM     31  C   UNL     1     -37.176 159.098 -10.888  1.00  0.00    +0.040 C 
ATOM     32  C   UNL     1     -37.164 158.783  -9.384  1.00  0.00    +0.054 C 
BRANCH  32  33
ATOM     33  N   UNL     1     -36.926 157.351  -9.169  1.00  0.00    -0.328 NA
ATOM     34  H   UNL     1     -36.979 156.860 -10.061  1.00  0.00    +0.119 HD
ATOM     35  H   UNL     1     -35.976 157.216  -8.825  1.00  0.00    +0.119 HD
ENDBRANCH  32  33
ENDBRANCH  23  27
ENDBRANCH   9  17
TORSDOF 6
ENDMDL
MODEL 3
REMARK VINA RESULT:    -8.976      1.818      4.053
REMARK INTER + INTRA:         -12.780
REMARK INTER:                 -12.018
REMARK INTRA:                  -0.762
REMARK UNBOUND:                -0.918
REMARK SMILES CC1(COc2ccc3c(c2)ncn3-c2ccc3cccc(N4CCC(N)CC4)c3n2)COC1
REMARK SMILES IDX 5 1 6 2 7 3 8 4 9 5 10 6 11 7 12 8 13 9 4 10 3 11 2 12 31 13
REMARK SMILES IDX 33 14 32 15 1 16 14 17 15 18 30 19 16 20 29 21 17 22 21 23
REMARK SMILES IDX 18 24 20 25 19 26 22 27 23 28 28 29 24 30 27 31 25 32 26 33
REMARK H PARENT 26 34 26 35
ROOT
ATOM      1  C   UNL     1     -39.144 162.248  -1.710  1.00  0.00    +0.121 A 
ATOM      2  C   UNL     1     -38.798 163.528  -2.144  1.00  0.00    +0.049 A 
ATOM      3  C   UNL     1     -38.549 163.813  -3.493  1.00  0.00    +0.033 A 
ATOM      4  C   UNL     1     -38.679 162.766  -4.419  1.00  0.00    +0.075 A 
ATOM      5  C   UNL     1     -38.978 161.469  -3.992  1.00  0.00    +0.093 A 
ATOM      6  C   UNL     1     -39.228 161.206  -2.633  1.00  0.00    +0.077 A 
ATOM      7  N   UNL     1     -38.958 160.578  -5.028  1.00  0.00    -0.236 NA
ATOM      8  C   UNL     1     -38.646 161.297  -6.080  1.00  0.00    +0.206 A 
ATOM      9  N   UNL     1     -38.530 162.644  -5.799  1.00  0.00    -0.283 N 
ENDROOT
BRANCH   1  10
ATOM     10  O   UNL     1     -39.355 162.144  -0.362  1.00  0.00    -0.493 OA
BRANCH  10  11
ATOM     11  C   UNL     1     -38.630 161.131   0.337  1.00  0.00    +0.241 C 
BRANCH  11  12
ATOM     12  C   UNL     1     -39.558 159.966   0.673  1.00  0.00    +0.048 C 
ATOM     13  C   UNL     1     -39.410 159.346   2.077  1.00  0.00    +0.172 C 
ATOM     14  C   UNL     1     -39.116 158.568   0.193  1.00  0.00    +0.172 C 
ATOM     15  O   UNL     1     -39.376 158.009   1.509  1.00  0.00    -0.380 OA
ATOM     16  C   UNL     1     -41.011 160.287   0.315  1.00  0.00    +0.020 C 
ENDBRANCH  11  12
ENDBRANCH  10  11
ENDBRANCH   1  10
BRANCH   9  17
ATOM     17  C   UNL     1     -38.308 163.626  -6.810  1.00  0.00    +0.139 A 
ATOM     18  C   UNL     1     -38.284 164.977  -6.521  1.00  0.00    +0.048 A 
ATOM     19  N   UNL     1     -38.165 163.162  -8.079  1.00  0.00    -0.228 NA
ATOM     20  C   UNL     1     -38.073 165.874  -7.564  1.00  0.00    +0.014 A 
ATOM     21  C   UNL     1     -37.950 164.020  -9.108  1.00  0.00    +0.096 A 
ATOM     22  C   UNL     1     -37.900 165.410  -8.873  1.00  0.00    +0.002 A 
ATOM     23  C   UNL     1     -37.781 163.567 -10.441  1.00  0.00    +0.063 A 
ATOM     24  C   UNL     1     -37.696 166.317  -9.927  1.00  0.00    +0.010 A 
ATOM     25  C   UNL     1     -37.586 164.494 -11.482  1.00  0.00    +0.028 A 
ATOM     26  C   UNL     1     -37.541 165.860 -11.230  1.00  0.00    +0.003 A 
BRANCH  23  27
ATOM     27  N   UNL     1     -37.802 162.199 -10.837  1.00  0.00    -0.370 N 
ATOM     28  C   UNL     1     -36.438 161.643 -10.938  1.00  0.00    +0.118 C 
ATOM     29  C   UNL     1     -38.638 161.936 -12.013  1.00  0.00    +0.118 C 
ATOM     30  C   UNL     1     -36.443 160.297 -11.677  1.00  0.00    +0.040 C 
ATOM     31  C   UNL     1     -38.935 160.432 -12.078  1.00  0.00    +0.040 C 
ATOM     32  C   UNL     1     -37.786 159.587 -11.508  1.00  0.00    +0.054 C 
BRANCH  32  33
ATOM     33  N   UNL     1     -37.766 158.265 -12.143  1.00  0.00    -0.328 NA
ATOM     34  H   UNL     1     -36.809 157.917 -12.177  1.00  0.00    +0.119 HD
ATOM     35  H   UNL     1     -38.290 157.606 -11.568  1.00  0.00    +0.119 HD
ENDBRANCH  32  33
ENDBRANCH  23  27
ENDBRANCH   9  17
TORSDOF 6
ENDMDL
MODEL 4
REMARK VINA RESULT:    -8.513     14.823     17.652
REMARK INTER + INTRA:         -12.168
REMARK INTER:                 -10.952
REMARK INTRA:                  -1.216
REMARK UNBOUND:                -0.918
REMARK SMILES CC1(COc2ccc3c(c2)ncn3-c2ccc3cccc(N4CCC(N)CC4)c3n2)COC1
REMARK SMILES IDX 5 1 6 2 7 3 8 4 9 5 10 6 11 7 12 8 13 9 4 10 3 11 2 12 31 13
REMARK SMILES IDX 33 14 32 15 1 16 14 17 15 18 30 19 16 20 29 21 17 22 21 23
REMARK SMILES IDX 18 24 20 25 19 26 22 27 23 28 28 29 24 30 27 31 25 32 26 33
REMARK H PARENT 26 34 26 35
ROOT
ATOM      1  C   UNL     1     -36.253 154.941   6.928  1.00  0.00    +0.121 A 
ATOM      2  C   UNL     1     -37.299 154.794   6.016  1.00  0.00    +0.049 A 
ATOM      3  C   UNL     1     -37.746 153.535   5.594  1.00  0.00    +0.033 A 
ATOM      4  C   UNL     1     -37.119 152.401   6.136  1.00  0.00    +0.075 A 
ATOM      5  C   UNL     1     -36.037 152.535   7.013  1.00  0.00    +0.093 A 
ATOM      6  C   UNL     1     -35.608 153.809   7.427  1.00  0.00    +0.077 A 
ATOM      7  N   UNL     1     -35.503 151.321   7.344  1.00  0.00    -0.236 NA
ATOM      8  C   UNL     1     -36.226 150.447   6.685  1.00  0.00    +0.206 A 
ATOM      9  N   UNL     1     -37.267 151.024   5.985  1.00  0.00    -0.283 N 
ENDROOT
BRANCH   1  10
ATOM     10  O   UNL     1     -35.945 156.238   7.235  1.00  0.00    -0.493 OA
BRANCH  10  11
ATOM     11  C   UNL     1     -34.592 156.653   7.037  1.00  0.00    +0.241 C 
BRANCH  11  12
ATOM     12  C   UNL     1     -34.381 157.058   5.580  1.00  0.00    +0.048 C 
ATOM     13  C   UNL     1     -34.011 155.930   4.596  1.00  0.00    +0.172 C 
ATOM     14  C   UNL     1     -32.988 157.609   5.210  1.00  0.00    +0.172 C 
ATOM     15  O   UNL     1     -32.919 156.725   4.058  1.00  0.00    -0.380 OA
ATOM     16  C   UNL     1     -35.524 157.940   5.073  1.00  0.00    +0.020 C 
ENDBRANCH  11  12
ENDBRANCH  10  11
ENDBRANCH   1  10
BRANCH   9  17
ATOM     17  C   UNL     1     -38.247 150.256   5.289  1.00  0.00    +0.139 A 
ATOM     18  C   UNL     1     -39.587 150.310   5.623  1.00  0.00    +0.048 A 
ATOM     19  N   UNL     1     -37.785 149.436   4.309  1.00  0.00    -0.228 NA
ATOM     20  C   UNL     1     -40.481 149.522   4.903  1.00  0.00    +0.014 A 
ATOM     21  C   UNL     1     -38.642 148.667   3.591  1.00  0.00    +0.096 A 
ATOM     22  C   UNL     1     -40.024 148.690   3.875  1.00  0.00    +0.002 A 
ATOM     23  C   UNL     1     -38.194 147.813   2.551  1.00  0.00    +0.063 A 
ATOM     24  C   UNL     1     -40.925 147.889   3.155  1.00  0.00    +0.010 A 
ATOM     25  C   UNL     1     -39.114 147.012   1.849  1.00  0.00    +0.028 A 
ATOM     26  C   UNL     1     -40.471 147.049   2.146  1.00  0.00    +0.003 A 
BRANCH  23  27
ATOM     27  N   UNL     1     -36.835 147.682   2.144  1.00  0.00    -0.370 N 
ATOM     28  C   UNL     1     -36.529 148.546   0.988  1.00  0.00    +0.118 C 
ATOM     29  C   UNL     1     -36.399 146.291   1.978  1.00  0.00    +0.118 C 
ATOM     30  C   UNL     1     -35.188 148.161   0.349  1.00  0.00    +0.040 C 
ATOM     31  C   UNL     1     -34.865 146.254   1.976  1.00  0.00    +0.040 C 
ATOM     32  C   UNL     1     -34.253 147.532   1.381  1.00  0.00    +0.054 C 
BRANCH  32  33
ATOM     33  N   UNL     1     -32.941 147.237   0.794  1.00  0.00    -0.328 NA
ATOM     34  H   UNL     1     -33.052 147.017  -0.195  1.00  0.00    +0.119 HD
ATOM     35  H   UNL     1     -32.357 148.072   0.837  1.00  0.00    +0.119 HD
ENDBRANCH  32  33
ENDBRANCH  23  27
ENDBRANCH   9  17
TORSDOF 6
ENDMDL
MODEL 5
REMARK VINA RESULT:    -8.434      3.037      5.992
REMARK INTER + INTRA:         -12.064
REMARK INTER:                 -11.417
REMARK INTRA:                  -0.648
REMARK UNBOUND:                -0.918
REMARK SMILES CC1(COc2ccc3c(c2)ncn3-c2ccc3cccc(N4CCC(N)CC4)c3n2)COC1
REMARK SMILES IDX 5 1 6 2 7 3 8 4 9 5 10 6 11 7 12 8 13 9 4 10 3 11 2 12 31 13
REMARK SMILES IDX 33 14 32 15 1 16 14 17 15 18 30 19 16 20 29 21 17 22 21 23
REMARK SMILES IDX 18 24 20 25 19 26 22 27 23 28 28 29 24 30 27 31 25 32 26 33
REMARK H PARENT 26 34 26 35
ROOT
ATOM      1  C   UNL     1     -38.718 158.602   0.995  1.00  0.00    +0.121 A 
ATOM      2  C   UNL     1     -38.455 159.972   1.024  1.00  0.00    +0.049 A 
ATOM      3  C   UNL     1     -38.446 160.752  -0.141  1.00  0.00    +0.033 A 
ATOM      4  C   UNL     1     -38.735 160.115  -1.358  1.00  0.00    +0.075 A 
ATOM      5  C   UNL     1     -38.953 158.734  -1.407  1.00  0.00    +0.093 A 
ATOM      6  C   UNL     1     -38.961 157.971  -0.225  1.00  0.00    +0.077 A 
ATOM      7  N   UNL     1     -39.114 158.293  -2.690  1.00  0.00    -0.236 NA
ATOM      8  C   UNL     1     -38.992 159.369  -3.430  1.00  0.00    +0.206 A 
ATOM      9  N   UNL     1     -38.829 160.521  -2.687  1.00  0.00    -0.283 N 
ENDROOT
BRANCH   1  10
ATOM     10  O   UNL     1     -38.691 157.994   2.221  1.00  0.00    -0.493 OA
BRANCH  10  11
ATOM     11  C   UNL     1     -37.966 158.653   3.261  1.00  0.00    +0.241 C 
BRANCH  11  12
ATOM     12  C   UNL     1     -37.173 157.628   4.070  1.00  0.00    +0.048 C 
ATOM     13  C   UNL     1     -37.093 157.861   5.592  1.00  0.00    +0.172 C 
ATOM     14  C   UNL     1     -35.644 157.828   4.129  1.00  0.00    +0.172 C 
ATOM     15  O   UNL     1     -35.654 157.655   5.572  1.00  0.00    -0.380 OA
ATOM     16  C   UNL     1     -37.573 156.197   3.707  1.00  0.00    +0.020 C 
ENDBRANCH  11  12
ENDBRANCH  10  11
ENDBRANCH   1  10
BRANCH   9  17
ATOM     17  C   UNL     1     -38.789 161.819  -3.277  1.00  0.00    +0.139 A 
ATOM     18  C   UNL     1     -39.144 162.953  -2.569  1.00  0.00    +0.048 A 
ATOM     19  N   UNL     1     -38.424 161.876  -4.585  1.00  0.00    -0.228 NA
ATOM     20  C   UNL     1     -39.089 164.183  -3.219  1.00  0.00    +0.014 A 
ATOM     21  C   UNL     1     -38.355 163.067  -5.231  1.00  0.00    +0.096 A 
ATOM     22  C   UNL     1     -38.692 164.260  -4.559  1.00  0.00    +0.002 A 
ATOM     23  C   UNL     1     -37.962 163.162  -6.591  1.00  0.00    +0.063 A 
ATOM     24  C   UNL     1     -38.644 165.501  -5.215  1.00  0.00    +0.010 A 
ATOM     25  C   UNL     1     -37.931 164.415  -7.231  1.00  0.00    +0.028 A 
ATOM     26  C   UNL     1     -38.267 165.578  -6.550  1.00  0.00    +0.003 A 
BRANCH  23  27
ATOM     27  N   UNL     1     -37.591 162.051  -7.403  1.00  0.00    -0.370 N 
ATOM     28  C   UNL     1     -36.460 161.306  -6.817  1.00  0.00    +0.118 C 
ATOM     29  C   UNL     1     -37.410 162.387  -8.819  1.00  0.00    +0.118 C 
ATOM     30  C   UNL     1     -35.851 160.333  -7.836  1.00  0.00    +0.040 C 
ATOM     31  C   UNL     1     -37.450 161.093  -9.641  1.00  0.00    +0.040 C 
ATOM     32  C   UNL     1     -36.896 159.891  -8.860  1.00  0.00    +0.054 C 
BRANCH  32  33
ATOM     33  N   UNL     1     -36.340 158.899  -9.786  1.00  0.00    -0.328 NA
ATOM     34  H   UNL     1     -35.824 158.194  -9.261  1.00  0.00    +0.119 HD
ATOM     35  H   UNL     1     -37.102 158.407 -10.251  1.00  0.00    +0.119 HD
ENDBRANCH  32  33
ENDBRANCH  23  27
ENDBRANCH   9  17
TORSDOF 6
ENDMDL
MODEL 6
REMARK VINA RESULT:    -8.365     10.851     16.924
REMARK INTER + INTRA:         -11.973
REMARK INTER:                 -10.853
REMARK INTRA:                  -1.120
REMARK UNBOUND:                -0.918
REMARK SMILES CC1(COc2ccc3c(c2)ncn3-c2ccc3cccc(N4CCC(N)CC4)c3n2)COC1
REMARK SMILES IDX 5 1 6 2 7 3 8 4 9 5 10 6 11 7 12 8 13 9 4 10 3 11 2 12 31 13
REMARK SMILES IDX 33 14 32 15 1 16 14 17 15 18 30 19 16 20 29 21 17 22 21 23
REMARK SMILES IDX 18 24 20 25 19 26 22 27 23 28 28 29 24 30 27 31 25 32 26 33
REMARK H PARENT 26 34 26 35
ROOT
ATOM      1  C   UNL     1     -37.215 156.958   4.098  1.00  0.00    +0.121 A 
ATOM      2  C   UNL     1     -37.989 155.842   4.418  1.00  0.00    +0.049 A 
ATOM      3  C   UNL     1     -37.434 154.695   5.000  1.00  0.00    +0.033 A 
ATOM      4  C   UNL     1     -36.058 154.702   5.279  1.00  0.00    +0.075 A 
ATOM      5  C   UNL     1     -35.263 155.795   4.919  1.00  0.00    +0.093 A 
ATOM      6  C   UNL     1     -35.842 156.938   4.339  1.00  0.00    +0.077 A 
ATOM      7  N   UNL     1     -33.941 155.565   5.181  1.00  0.00    -0.236 NA
ATOM      8  C   UNL     1     -33.906 154.355   5.685  1.00  0.00    +0.206 A 
ATOM      9  N   UNL     1     -35.159 153.796   5.838  1.00  0.00    -0.283 N 
ENDROOT
BRANCH   1  10
ATOM     10  O   UNL     1     -37.915 157.993   3.539  1.00  0.00    -0.493 OA
BRANCH  10  11
ATOM     11  C   UNL     1     -37.903 158.095   2.113  1.00  0.00    +0.241 C 
BRANCH  11  12
ATOM     12  C   UNL     1     -39.185 158.772   1.631  1.00  0.00    +0.048 C 
ATOM     13  C   UNL     1     -39.478 158.699   0.119  1.00  0.00    +0.172 C 
ATOM     14  C   UNL     1     -39.110 160.291   1.372  1.00  0.00    +0.172 C 
ATOM     15  O   UNL     1     -39.753 160.125   0.079  1.00  0.00    -0.380 OA
ATOM     16  C   UNL     1     -40.386 158.373   2.491  1.00  0.00    +0.020 C 
ENDBRANCH  11  12
ENDBRANCH  10  11
ENDBRANCH   1  10
BRANCH   9  17
ATOM     17  C   UNL     1     -35.369 152.535   6.470  1.00  0.00    +0.139 A 
ATOM     18  C   UNL     1     -34.588 152.111   7.530  1.00  0.00    +0.048 A 
ATOM     19  N   UNL     1     -36.350 151.753   5.946  1.00  0.00    -0.228 NA
ATOM     20  C   UNL     1     -34.848 150.862   8.086  1.00  0.00    +0.014 A 
ATOM     21  C   UNL     1     -36.623 150.537   6.480  1.00  0.00    +0.096 A 
ATOM     22  C   UNL     1     -35.870 150.056   7.572  1.00  0.00    +0.002 A 
ATOM     23  C   UNL     1     -37.651 149.705   5.967  1.00  0.00    +0.063 A 
ATOM     24  C   UNL     1     -36.126 148.792   8.129  1.00  0.00    +0.010 A 
ATOM     25  C   UNL     1     -37.883 148.438   6.535  1.00  0.00    +0.028 A 
ATOM     26  C   UNL     1     -37.130 147.983   7.609  1.00  0.00    +0.003 A 
BRANCH  23  27
ATOM     27  N   UNL     1     -38.497 150.049   4.873  1.00  0.00    -0.370 N 
ATOM     28  C   UNL     1     -39.912 150.122   5.286  1.00  0.00    +0.118 C 
ATOM     29  C   UNL     1     -38.270 149.240   3.672  1.00  0.00    +0.118 C 
ATOM     30  C   UNL     1     -40.843 150.158   4.065  1.00  0.00    +0.040 C 
ATOM     31  C   UNL     1     -38.893 149.960   2.469  1.00  0.00    +0.040 C 
ATOM     32  C   UNL     1     -40.136 150.775   2.859  1.00  0.00    +0.054 C 
BRANCH  32  33
ATOM     33  N   UNL     1     -41.047 150.886   1.714  1.00  0.00    -0.328 NA
ATOM     34  H   UNL     1     -40.942 150.069   1.114  1.00  0.00    +0.119 HD
ATOM     35  H   UNL     1     -42.010 150.874   2.047  1.00  0.00    +0.119 HD
ENDBRANCH  32  33
ENDBRANCH  23  27
ENDBRANCH   9  17
TORSDOF 6
ENDMDL
MODEL 7
REMARK VINA RESULT:    -8.305     15.112     17.563
REMARK INTER + INTRA:         -11.894
REMARK INTER:                 -10.673
REMARK INTRA:                  -1.221
REMARK UNBOUND:                -0.918
REMARK SMILES CC1(COc2ccc3c(c2)ncn3-c2ccc3cccc(N4CCC(N)CC4)c3n2)COC1
REMARK SMILES IDX 5 1 6 2 7 3 8 4 9 5 10 6 11 7 12 8 13 9 4 10 3 11 2 12 31 13
REMARK SMILES IDX 33 14 32 15 1 16 14 17 15 18 30 19 16 20 29 21 17 22 21 23
REMARK SMILES IDX 18 24 20 25 19 26 22 27 23 28 28 29 24 30 27 31 25 32 26 33
REMARK H PARENT 26 34 26 35
ROOT
ATOM      1  C   UNL     1     -36.082 153.690   6.906  1.00  0.00    +0.121 A 
ATOM      2  C   UNL     1     -37.388 153.582   6.427  1.00  0.00    +0.049 A 
ATOM      3  C   UNL     1     -37.846 152.432   5.770  1.00  0.00    +0.033 A 
ATOM      4  C   UNL     1     -36.949 151.362   5.618  1.00  0.00    +0.075 A 
ATOM      5  C   UNL     1     -35.624 151.476   6.051  1.00  0.00    +0.093 A 
ATOM      6  C   UNL     1     -35.186 152.638   6.712  1.00  0.00    +0.077 A 
ATOM      7  N   UNL     1     -34.889 150.372   5.721  1.00  0.00    -0.236 NA
ATOM      8  C   UNL     1     -35.730 149.587   5.091  1.00  0.00    +0.206 A 
ATOM      9  N   UNL     1     -37.015 150.092   5.051  1.00  0.00    -0.283 N 
ENDROOT
BRANCH   1  10
ATOM     10  O   UNL     1     -35.801 154.877   7.526  1.00  0.00    -0.493 OA
BRANCH  10  11
ATOM     11  C   UNL     1     -34.518 155.456   7.277  1.00  0.00    +0.241 C 
BRANCH  11  12
ATOM     12  C   UNL     1     -34.644 156.566   6.235  1.00  0.00    +0.048 C 
ATOM     13  C   UNL     1     -34.710 156.124   4.759  1.00  0.00    +0.172 C 
ATOM     14  C   UNL     1     -33.334 157.252   5.795  1.00  0.00    +0.172 C 
ATOM     15  O   UNL     1     -33.697 157.101   4.396  1.00  0.00    -0.380 OA
ATOM     16  C   UNL     1     -35.742 157.563   6.608  1.00  0.00    +0.020 C 
ENDBRANCH  11  12
ENDBRANCH  10  11
ENDBRANCH   1  10
BRANCH   9  17
ATOM     17  C   UNL     1     -38.114 149.358   4.516  1.00  0.00    +0.139 A 
ATOM     18  C   UNL     1     -39.311 149.237   5.198  1.00  0.00    +0.048 A 
ATOM     19  N   UNL     1     -37.907 148.749   3.319  1.00  0.00    -0.228 NA
ATOM     20  C   UNL     1     -40.334 148.495   4.614  1.00  0.00    +0.014 A 
ATOM     21  C   UNL     1     -38.895 148.029   2.730  1.00  0.00    +0.096 A 
ATOM     22  C   UNL     1     -40.143 147.881   3.370  1.00  0.00    +0.002 A 
ATOM     23  C   UNL     1     -38.716 147.395   1.474  1.00  0.00    +0.063 A 
ATOM     24  C   UNL     1     -41.173 147.126   2.786  1.00  0.00    +0.010 A 
ATOM     25  C   UNL     1     -39.759 146.635   0.912  1.00  0.00    +0.028 A 
ATOM     26  C   UNL     1     -40.981 146.502   1.559  1.00  0.00    +0.003 A 
BRANCH  23  27
ATOM     27  N   UNL     1     -37.519 147.453   0.704  1.00  0.00    -0.370 N 
ATOM     28  C   UNL     1     -37.790 147.855  -0.690  1.00  0.00    +0.118 C 
ATOM     29  C   UNL     1     -36.679 146.257   0.824  1.00  0.00    +0.118 C 
ATOM     30  C   UNL     1     -36.572 147.595  -1.587  1.00  0.00    +0.040 C 
ATOM     31  C   UNL     1     -35.266 146.597   0.333  1.00  0.00    +0.040 C 
ATOM     32  C   UNL     1     -35.276 147.657  -0.780  1.00  0.00    +0.054 C 
BRANCH  32  33
ATOM     33  N   UNL     1     -34.105 147.489  -1.648  1.00  0.00    -0.328 NA
ATOM     34  H   UNL     1     -33.554 146.694  -1.326  1.00  0.00    +0.119 HD
ATOM     35  H   UNL     1     -34.415 147.259  -2.591  1.00  0.00    +0.119 HD
ENDBRANCH  32  33
ENDBRANCH  23  27
ENDBRANCH   9  17
TORSDOF 6
ENDMDL
MODEL 8
REMARK VINA RESULT:    -8.258     14.298     17.723
REMARK INTER + INTRA:         -11.831
REMARK INTER:                 -10.720
REMARK INTRA:                  -1.111
REMARK UNBOUND:                -0.918
REMARK SMILES CC1(COc2ccc3c(c2)ncn3-c2ccc3cccc(N4CCC(N)CC4)c3n2)COC1
REMARK SMILES IDX 5 1 6 2 7 3 8 4 9 5 10 6 11 7 12 8 13 9 4 10 3 11 2 12 31 13
REMARK SMILES IDX 33 14 32 15 1 16 14 17 15 18 30 19 16 20 29 21 17 22 21 23
REMARK SMILES IDX 18 24 20 25 19 26 22 27 23 28 28 29 24 30 27 31 25 32 26 33
REMARK H PARENT 26 34 26 35
ROOT
ATOM      1  C   UNL     1     -36.332 152.654   6.047  1.00  0.00    +0.121 A 
ATOM      2  C   UNL     1     -35.228 151.802   6.028  1.00  0.00    +0.049 A 
ATOM      3  C   UNL     1     -35.313 150.484   5.559  1.00  0.00    +0.033 A 
ATOM      4  C   UNL     1     -36.555 150.038   5.080  1.00  0.00    +0.075 A 
ATOM      5  C   UNL     1     -37.681 150.866   5.138  1.00  0.00    +0.093 A 
ATOM      6  C   UNL     1     -37.572 152.186   5.609  1.00  0.00    +0.077 A 
ATOM      7  N   UNL     1     -38.808 150.215   4.721  1.00  0.00    -0.236 NA
ATOM      8  C   UNL     1     -38.402 149.005   4.417  1.00  0.00    +0.206 A 
ATOM      9  N   UNL     1     -37.036 148.846   4.543  1.00  0.00    -0.283 N 
ENDROOT
BRANCH   1  10
ATOM     10  O   UNL     1     -36.075 153.907   6.532  1.00  0.00    -0.493 OA
BRANCH  10  11
ATOM     11  C   UNL     1     -34.759 154.428   6.331  1.00  0.00    +0.241 C 
BRANCH  11  12
ATOM     12  C   UNL     1     -34.842 155.874   5.847  1.00  0.00    +0.048 C 
ATOM     13  C   UNL     1     -36.108 156.268   5.061  1.00  0.00    +0.172 C 
ATOM     14  C   UNL     1     -34.122 156.202   4.522  1.00  0.00    +0.172 C 
ATOM     15  O   UNL     1     -35.301 156.891   4.026  1.00  0.00    -0.380 OA
ATOM     16  C   UNL     1     -34.506 156.859   6.968  1.00  0.00    +0.020 C 
ENDBRANCH  11  12
ENDBRANCH  10  11
ENDBRANCH   1  10
BRANCH   9  17
ATOM     17  C   UNL     1     -36.361 147.650   4.159  1.00  0.00    +0.139 A 
ATOM     18  C   UNL     1     -35.917 146.731   5.091  1.00  0.00    +0.048 A 
ATOM     19  N   UNL     1     -36.140 147.484   2.828  1.00  0.00    -0.228 NA
ATOM     20  C   UNL     1     -35.256 145.593   4.637  1.00  0.00    +0.014 A 
ATOM     21  C   UNL     1     -35.506 146.377   2.366  1.00  0.00    +0.096 A 
ATOM     22  C   UNL     1     -35.042 145.397   3.268  1.00  0.00    +0.002 A 
ATOM     23  C   UNL     1     -35.274 146.166   0.982  1.00  0.00    +0.063 A 
ATOM     24  C   UNL     1     -34.368 144.252   2.811  1.00  0.00    +0.010 A 
ATOM     25  C   UNL     1     -34.588 145.017   0.549  1.00  0.00    +0.028 A 
ATOM     26  C   UNL     1     -34.139 144.063   1.454  1.00  0.00    +0.003 A 
BRANCH  23  27
ATOM     27  N   UNL     1     -35.683 147.060  -0.049  1.00  0.00    -0.370 N 
ATOM     28  C   UNL     1     -35.886 146.354  -1.329  1.00  0.00    +0.118 C 
ATOM     29  C   UNL     1     -34.845 148.259  -0.160  1.00  0.00    +0.118 C 
ATOM     30  C   UNL     1     -35.994 147.344  -2.496  1.00  0.00    +0.040 C 
ATOM     31  C   UNL     1     -35.607 149.318  -0.966  1.00  0.00    +0.040 C 
ATOM     32  C   UNL     1     -36.534 148.692  -2.020  1.00  0.00    +0.054 C 
BRANCH  32  33
ATOM     33  N   UNL     1     -36.716 149.616  -3.145  1.00  0.00    -0.328 NA
ATOM     34  H   UNL     1     -35.808 149.840  -3.552  1.00  0.00    +0.119 HD
ATOM     35  H   UNL     1     -37.250 149.152  -3.879  1.00  0.00    +0.119 HD
ENDBRANCH  32  33
ENDBRANCH  23  27
ENDBRANCH   9  17
TORSDOF 6
ENDMDL
MODEL 9
REMARK VINA RESULT:    -8.225     16.515     18.940
REMARK INTER + INTRA:         -11.787
REMARK INTER:                 -10.746
REMARK INTRA:                  -1.042
REMARK UNBOUND:                -0.918
REMARK SMILES CC1(COc2ccc3c(c2)ncn3-c2ccc3cccc(N4CCC(N)CC4)c3n2)COC1
REMARK SMILES IDX 5 1 6 2 7 3 8 4 9 5 10 6 11 7 12 8 13 9 4 10 3 11 2 12 31 13
REMARK SMILES IDX 33 14 32 15 1 16 14 17 15 18 30 19 16 20 29 21 17 22 21 23
REMARK SMILES IDX 18 24 20 25 19 26 22 27 23 28 28 29 24 30 27 31 25 32 26 33
REMARK H PARENT 26 34 26 35
ROOT
ATOM      1  C   UNL     1     -39.536 146.885  -2.411  1.00  0.00    +0.121 A 
ATOM      2  C   UNL     1     -39.616 146.581  -1.052  1.00  0.00    +0.049 A 
ATOM      3  C   UNL     1     -38.537 146.784  -0.180  1.00  0.00    +0.033 A 
ATOM      4  C   UNL     1     -37.358 147.331  -0.712  1.00  0.00    +0.075 A 
ATOM      5  C   UNL     1     -37.249 147.594  -2.082  1.00  0.00    +0.093 A 
ATOM      6  C   UNL     1     -38.346 147.386  -2.937  1.00  0.00    +0.077 A 
ATOM      7  N   UNL     1     -35.995 148.023  -2.415  1.00  0.00    -0.236 NA
ATOM      8  C   UNL     1     -35.330 148.021  -1.284  1.00  0.00    +0.206 A 
ATOM      9  N   UNL     1     -36.111 147.679  -0.198  1.00  0.00    -0.283 N 
ENDROOT
BRANCH   1  10
ATOM     10  O   UNL     1     -40.680 146.628  -3.118  1.00  0.00    -0.493 OA
BRANCH  10  11
ATOM     11  C   UNL     1     -40.760 147.155  -4.444  1.00  0.00    +0.241 C 
BRANCH  11  12
ATOM     12  C   UNL     1     -41.905 146.484  -5.199  1.00  0.00    +0.048 C 
ATOM     13  C   UNL     1     -42.056 144.961  -5.017  1.00  0.00    +0.172 C 
ATOM     14  C   UNL     1     -41.637 146.112  -6.672  1.00  0.00    +0.172 C 
ATOM     15  O   UNL     1     -42.165 144.775  -6.454  1.00  0.00    -0.380 OA
ATOM     16  C   UNL     1     -43.221 147.240  -5.006  1.00  0.00    +0.020 C 
ENDBRANCH  11  12
ENDBRANCH  10  11
ENDBRANCH   1  10
BRANCH   9  17
ATOM     17  C   UNL     1     -35.628 147.720   1.143  1.00  0.00    +0.139 A 
ATOM     18  C   UNL     1     -34.358 147.284   1.474  1.00  0.00    +0.048 A 
ATOM     19  N   UNL     1     -36.498 148.171   2.085  1.00  0.00    -0.228 NA
ATOM     20  C   UNL     1     -33.964 147.347   2.808  1.00  0.00    +0.014 A 
ATOM     21  C   UNL     1     -36.128 148.247   3.387  1.00  0.00    +0.096 A 
ATOM     22  C   UNL     1     -34.841 147.831   3.785  1.00  0.00    +0.002 A 
ATOM     23  C   UNL     1     -37.008 148.728   4.391  1.00  0.00    +0.063 A 
ATOM     24  C   UNL     1     -34.444 147.886   5.131  1.00  0.00    +0.010 A 
ATOM     25  C   UNL     1     -36.592 148.765   5.735  1.00  0.00    +0.028 A 
ATOM     26  C   UNL     1     -35.319 148.350   6.106  1.00  0.00    +0.003 A 
BRANCH  23  27
ATOM     27  N   UNL     1     -38.335 149.187   4.149  1.00  0.00    -0.370 N 
ATOM     28  C   UNL     1     -38.746 150.204   5.136  1.00  0.00    +0.118 C 
ATOM     29  C   UNL     1     -39.311 148.107   3.969  1.00  0.00    +0.118 C 
ATOM     30  C   UNL     1     -40.261 150.445   5.084  1.00  0.00    +0.040 C 
ATOM     31  C   UNL     1     -40.563 148.683   3.298  1.00  0.00    +0.040 C 
ATOM     32  C   UNL     1     -40.812 150.148   3.690  1.00  0.00    +0.054 C 
BRANCH  32  33
ATOM     33  N   UNL     1     -42.245 150.455   3.613  1.00  0.00    -0.328 NA
ATOM     34  H   UNL     1     -42.561 150.367   2.648  1.00  0.00    +0.119 HD
ATOM     35  H   UNL     1     -42.768 149.763   4.150  1.00  0.00    +0.119 HD
ENDBRANCH  32  33
ENDBRANCH  23  27
ENDBRANCH   9  17
TORSDOF 6
ENDMDL
MODEL 10
REMARK VINA RESULT:    -8.179     10.847     17.030
REMARK INTER + INTRA:         -11.728
REMARK INTER:                 -10.523
REMARK INTRA:                  -1.204
REMARK UNBOUND:                -0.918
REMARK SMILES CC1(COc2ccc3c(c2)ncn3-c2ccc3cccc(N4CCC(N)CC4)c3n2)COC1
REMARK SMILES IDX 5 1 6 2 7 3 8 4 9 5 10 6 11 7 12 8 13 9 4 10 3 11 2 12 31 13
REMARK SMILES IDX 33 14 32 15 1 16 14 17 15 18 30 19 16 20 29 21 17 22 21 23
REMARK SMILES IDX 18 24 20 25 19 26 22 27 23 28 28 29 24 30 27 31 25 32 26 33
REMARK H PARENT 26 34 26 35
ROOT
ATOM      1  C   UNL     1     -37.262 156.768   4.089  1.00  0.00    +0.121 A 
ATOM      2  C   UNL     1     -38.016 155.658   4.467  1.00  0.00    +0.049 A 
ATOM      3  C   UNL     1     -37.427 154.511   5.016  1.00  0.00    +0.033 A 
ATOM      4  C   UNL     1     -36.035 154.513   5.201  1.00  0.00    +0.075 A 
ATOM      5  C   UNL     1     -35.262 155.601   4.782  1.00  0.00    +0.093 A 
ATOM      6  C   UNL     1     -35.875 156.743   4.237  1.00  0.00    +0.077 A 
ATOM      7  N   UNL     1     -33.927 155.367   4.954  1.00  0.00    -0.236 NA
ATOM      8  C   UNL     1     -33.862 154.159   5.462  1.00  0.00    +0.206 A 
ATOM      9  N   UNL     1     -35.105 153.607   5.703  1.00  0.00    -0.283 N 
ENDROOT
BRANCH   1  10
ATOM     10  O   UNL     1     -37.994 157.803   3.573  1.00  0.00    -0.493 OA
BRANCH  10  11
ATOM     11  C   UNL     1     -37.845 158.077   2.178  1.00  0.00    +0.241 C 
BRANCH  11  12
ATOM     12  C   UNL     1     -39.120 158.722   1.638  1.00  0.00    +0.048 C 
ATOM     13  C   UNL     1     -39.371 158.591   0.122  1.00  0.00    +0.172 C 
ATOM     14  C   UNL     1     -39.053 160.231   1.326  1.00  0.00    +0.172 C 
ATOM     15  O   UNL     1     -39.659 160.012   0.023  1.00  0.00    -0.380 OA
ATOM     16  C   UNL     1     -40.340 158.340   2.478  1.00  0.00    +0.020 C 
ENDBRANCH  11  12
ENDBRANCH  10  11
ENDBRANCH   1  10
BRANCH   9  17
ATOM     17  C   UNL     1     -35.276 152.350   6.355  1.00  0.00    +0.139 A 
ATOM     18  C   UNL     1     -35.386 152.250   7.729  1.00  0.00    +0.048 A 
ATOM     19  N   UNL     1     -35.281 151.251   5.554  1.00  0.00    -0.228 NA
ATOM     20  C   UNL     1     -35.540 150.985   8.291  1.00  0.00    +0.014 A 
ATOM     21  C   UNL     1     -35.439 150.012   6.083  1.00  0.00    +0.096 A 
ATOM     22  C   UNL     1     -35.570 149.847   7.477  1.00  0.00    +0.002 A 
ATOM     23  C   UNL     1     -35.464 148.847   5.273  1.00  0.00    +0.063 A 
ATOM     24  C   UNL     1     -35.717 148.571   8.046  1.00  0.00    +0.010 A 
ATOM     25  C   UNL     1     -35.603 147.578   5.865  1.00  0.00    +0.028 A 
ATOM     26  C   UNL     1     -35.732 147.438   7.242  1.00  0.00    +0.003 A 
BRANCH  23  27
ATOM     27  N   UNL     1     -35.347 148.849   3.853  1.00  0.00    -0.370 N 
ATOM     28  C   UNL     1     -36.649 148.613   3.201  1.00  0.00    +0.118 C 
ATOM     29  C   UNL     1     -34.266 147.996   3.347  1.00  0.00    +0.118 C 
ATOM     30  C   UNL     1     -36.471 148.283   1.712  1.00  0.00    +0.040 C 
ATOM     31  C   UNL     1     -33.953 148.404   1.902  1.00  0.00    +0.040 C 
ATOM     32  C   UNL     1     -35.196 148.921   1.161  1.00  0.00    +0.054 C 
BRANCH  32  33
ATOM     33  N   UNL     1     -35.064 148.677  -0.279  1.00  0.00    -0.328 NA
ATOM     34  H   UNL     1     -35.552 149.409  -0.795  1.00  0.00    +0.119 HD
ATOM     35  H   UNL     1     -34.082 148.747  -0.545  1.00  0.00    +0.119 HD
ENDBRANCH  32  33
ENDBRANCH  23  27
ENDBRANCH   9  17
TORSDOF 6
ENDMDL
