REMARK SMILES Cn1cc(-c2cc3c(N4CCN(c5ncc([C@@](C)(N)c6ccc(F)cc6)cn5)CC4)ncnn3c2)cn1
REMARK SMILES IDX 13 1 14 2 15 3 16 4 27 5 28 6 12 7 5 8 6 9 35 10 7 11 34 12
REMARK SMILES IDX 8 13 33 14 9 15 31 16 32 17 10 18 30 19 11 20 29 21 4 22
REMARK SMILES IDX 2 23 3 24 37 25 36 26 1 27 17 28 18 29 19 30 20 33 21 34
REMARK SMILES IDX 26 35 22 36 25 37 23 38 24 39
REMARK H PARENT 19 31 19 32
ROOT
ATOM      1  C   UNL     1       1.987  -0.279   0.286  1.00  0.00    +0.225 A 
ATOM      2  N   UNL     1       2.272  -1.197  -0.651  1.00  0.00    -0.221 NA
ATOM      3  C   UNL     1       3.572  -1.423  -0.941  1.00  0.00    +0.122 A 
ATOM      4  C   UNL     1       4.628  -0.759  -0.356  1.00  0.00    +0.013 A 
ATOM      5  C   UNL     1       4.229   0.150   0.604  1.00  0.00    +0.122 A 
ATOM      6  N   UNL     1       2.944   0.404   0.930  1.00  0.00    -0.221 NA
ENDROOT
BRANCH   1   7
ATOM      7  N   UNL     1       0.665  -0.013   0.576  1.00  0.00    -0.337 N 
ATOM      8  C   UNL     1      -6.350   0.092   0.345  1.00  0.00    +0.005 A 
ATOM      9  C   UNL     1      -4.938   0.216   0.407  1.00  0.00    +0.042 A 
ATOM     10  C   UNL     1      -6.760  -0.452   1.542  1.00  0.00    +0.122 A 
ATOM     11  C   UNL     1      -4.533  -0.282   1.632  1.00  0.00    +0.108 A 
ATOM     12  N   UNL     1      -5.653  -0.646   2.322  1.00  0.00    -0.235 N 
ATOM     13  C   UNL     1      -3.262  -0.431   2.289  1.00  0.00    +0.156 C 
ATOM     14  N   UNL     1      -5.664  -1.106   3.580  1.00  0.00    -0.156 NA
ATOM     15  N   UNL     1      -2.030  -0.150   1.712  1.00  0.00    -0.351 N 
ATOM     16  N   UNL     1      -3.291  -0.851   3.524  1.00  0.00    -0.215 NA
ATOM     17  C   UNL     1      -4.486  -1.172   4.113  1.00  0.00    +0.247 C 
ATOM     18  C   UNL     1      -1.767  -0.368   0.278  1.00  0.00    +0.139 C 
ATOM     19  C   UNL     1      -0.829  -0.049   2.566  1.00  0.00    +0.139 C 
ATOM     20  C   UNL     1      -0.345  -0.901   0.002  1.00  0.00    +0.141 C 
ATOM     21  C   UNL     1       0.345   0.645   1.846  1.00  0.00    +0.141 C 
BRANCH   8  22
ATOM     22  C   UNL     1      -7.191   0.481  -0.777  1.00  0.00    +0.021 A 
ATOM     23  N   UNL     1      -8.867   0.874  -2.127  1.00  0.00    -0.275 N 
ATOM     24  C   UNL     1      -8.558   0.377  -0.895  1.00  0.00    +0.117 A 
ATOM     25  N   UNL     1      -7.793   1.294  -2.823  1.00  0.00    -0.181 NA
ATOM     26  C   UNL     1      -6.772   1.055  -1.994  1.00  0.00    +0.143 A 
ATOM     27  C   UNL     1     -10.180   0.980  -2.715  1.00  0.00    +0.173 C 
ENDBRANCH   8  22
ENDBRANCH   1   7
BRANCH   4  28
ATOM     28  C   UNL     1       6.091  -1.035  -0.673  1.00  0.00    +0.067 C 
ATOM     29  C   UNL     1       6.596  -2.010   0.418  1.00  0.00    +0.038 C 
BRANCH  28  30
ATOM     30  N   UNL     1       6.246  -1.766  -1.948  1.00  0.00    -0.318 NA
ATOM     31  H   UNL     1       7.237  -1.960  -2.093  1.00  0.00    +0.120 HD
ATOM     32  H   UNL     1       5.979  -1.154  -2.718  1.00  0.00    +0.120 HD
ENDBRANCH  28  30
BRANCH  28  33
ATOM     33  C   UNL     1       6.922   0.263  -0.787  1.00  0.00    -0.024 A 
ATOM     34  C   UNL     1       6.494   1.293  -1.658  1.00  0.00    +0.009 A 
ATOM     35  C   UNL     1       8.118   0.470  -0.072  1.00  0.00    +0.009 A 
ATOM     36  C   UNL     1       7.222   2.476  -1.797  1.00  0.00    +0.039 A 
ATOM     37  C   UNL     1       8.846   1.655  -0.215  1.00  0.00    +0.039 A 
ATOM     38  C   UNL     1       8.393   2.646  -1.073  1.00  0.00    +0.123 A 
ATOM     39  F   UNL     1       9.094   3.779  -1.206  1.00  0.00    -0.207 F 
ENDBRANCH  28  33
ENDBRANCH   4  28
TORSDOF 5
