MODEL 1
REMARK VINA RESULT:   -10.138      0.000      0.000
REMARK INTER + INTRA:         -13.494
REMARK INTER:                 -12.805
REMARK INTRA:                  -0.689
REMARK UNBOUND:                -0.689
REMARK SMILES Cn1cc(-c2cc3c(N4CCN(c5ncc([C@@](C)(N)c6ccc(F)cc6)cn5)CC4)ncnn3c2)cn1
REMARK SMILES IDX 13 1 14 2 15 3 16 4 27 5 28 6 12 7 5 8 6 9 35 10 7 11 34 12
REMARK SMILES IDX 8 13 33 14 9 15 31 16 32 17 10 18 30 19 11 20 29 21 4 22
REMARK SMILES IDX 2 23 3 24 37 25 36 26 1 27 17 28 18 29 19 30 20 33 21 34
REMARK SMILES IDX 26 35 22 36 25 37 23 38 24 39
REMARK H PARENT 19 31 19 32
ROOT
ATOM      1  C   UNL     1      -6.597  -1.504 -14.404  1.00  0.00    +0.225 A 
ATOM      2  N   UNL     1      -6.467  -2.220 -15.532  1.00  0.00    -0.221 NA
ATOM      3  C   UNL     1      -5.861  -3.424 -15.451  1.00  0.00    +0.122 A 
ATOM      4  C   UNL     1      -5.345  -3.961 -14.292  1.00  0.00    +0.013 A 
ATOM      5  C   UNL     1      -5.545  -3.155 -13.188  1.00  0.00    +0.122 A 
ATOM      6  N   UNL     1      -6.149  -1.949 -13.221  1.00  0.00    -0.221 NA
ENDROOT
BRANCH   1   7
ATOM      7  N   UNL     1      -7.187  -0.259 -14.470  1.00  0.00    -0.337 N 
ATOM      8  C   UNL     1     -10.372   5.522 -16.861  1.00  0.00    +0.005 A 
ATOM      9  C   UNL     1      -9.634   4.442 -16.310  1.00  0.00    +0.042 A 
ATOM     10  C   UNL     1     -11.560   5.594 -16.168  1.00  0.00    +0.122 A 
ATOM     11  C   UNL     1     -10.410   3.876 -15.316  1.00  0.00    +0.108 A 
ATOM     12  N   UNL     1     -11.557   4.610 -15.217  1.00  0.00    -0.235 N 
ATOM     13  C   UNL     1     -10.235   2.780 -14.401  1.00  0.00    +0.156 C 
ATOM     14  N   UNL     1     -12.523   4.407 -14.311  1.00  0.00    -0.156 NA
ATOM     15  N   UNL     1      -9.151   1.911 -14.399  1.00  0.00    -0.351 N 
ATOM     16  N   UNL     1     -11.169   2.614 -13.506  1.00  0.00    -0.215 NA
ATOM     17  C   UNL     1     -12.270   3.430 -13.501  1.00  0.00    +0.247 C 
ATOM     18  C   UNL     1      -8.463   1.511 -15.640  1.00  0.00    +0.139 C 
ATOM     19  C   UNL     1      -8.928   1.024 -13.239  1.00  0.00    +0.139 C 
ATOM     20  C   UNL     1      -8.024   0.031 -15.633  1.00  0.00    +0.141 C 
ATOM     21  C   UNL     1      -7.503   0.434 -13.218  1.00  0.00    +0.141 C 
BRANCH   8  22
ATOM     22  C   UNL     1      -9.935   6.386 -17.948  1.00  0.00    +0.021 A 
ATOM     23  N   UNL     1      -9.311   8.082 -19.181  1.00  0.00    -0.275 N 
ATOM     24  C   UNL     1      -9.701   7.741 -17.919  1.00  0.00    +0.117 A 
ATOM     25  N   UNL     1      -9.277   7.040 -20.033  1.00  0.00    -0.181 NA
ATOM     26  C   UNL     1      -9.656   6.005 -19.276  1.00  0.00    +0.143 A 
ATOM     27  C   UNL     1      -8.953   9.397 -19.652  1.00  0.00    +0.173 C 
ENDBRANCH   8  22
ENDBRANCH   1   7
BRANCH   4  28
ATOM     28  C   UNL     1      -4.683  -5.329 -14.205  1.00  0.00    +0.067 C 
ATOM     29  C   UNL     1      -3.370  -5.127 -13.412  1.00  0.00    +0.038 C 
BRANCH  28  30
ATOM     30  N   UNL     1      -5.482  -6.274 -13.398  1.00  0.00    -0.318 NA
ATOM     31  H   UNL     1      -5.302  -6.090 -12.410  1.00  0.00    +0.120 HD
ATOM     32  H   UNL     1      -5.143  -7.221 -13.559  1.00  0.00    +0.120 HD
ENDBRANCH  28  30
BRANCH  28  33
ATOM     33  C   UNL     1      -4.483  -5.973 -15.596  1.00  0.00    -0.024 A 
ATOM     34  C   UNL     1      -5.438  -6.897 -16.083  1.00  0.00    +0.009 A 
ATOM     35  C   UNL     1      -3.366  -5.701 -16.411  1.00  0.00    +0.009 A 
ATOM     36  C   UNL     1      -5.288  -7.508 -17.329  1.00  0.00    +0.039 A 
ATOM     37  C   UNL     1      -3.218  -6.316 -17.657  1.00  0.00    +0.039 A 
ATOM     38  C   UNL     1      -4.177  -7.212 -18.105  1.00  0.00    +0.123 A 
ATOM     39  F   UNL     1      -4.030  -7.798 -19.300  1.00  0.00    -0.207 F 
ENDBRANCH  28  33
ENDBRANCH   4  28
TORSDOF 5
ENDMDL
MODEL 2
REMARK VINA RESULT:    -9.996      1.343      1.811
REMARK INTER + INTRA:         -13.315
REMARK INTER:                 -12.458
REMARK INTRA:                  -0.857
REMARK UNBOUND:                -0.689
REMARK SMILES Cn1cc(-c2cc3c(N4CCN(c5ncc([C@@](C)(N)c6ccc(F)cc6)cn5)CC4)ncnn3c2)cn1
REMARK SMILES IDX 13 1 14 2 15 3 16 4 27 5 28 6 12 7 5 8 6 9 35 10 7 11 34 12
REMARK SMILES IDX 8 13 33 14 9 15 31 16 32 17 10 18 30 19 11 20 29 21 4 22
REMARK SMILES IDX 2 23 3 24 37 25 36 26 1 27 17 28 18 29 19 30 20 33 21 34
REMARK SMILES IDX 26 35 22 36 25 37 23 38 24 39
REMARK H PARENT 19 31 19 32
ROOT
ATOM      1  C   UNL     1      -5.389  -0.663 -15.075  1.00  0.00    +0.225 A 
ATOM      2  N   UNL     1      -5.372  -1.401 -13.954  1.00  0.00    -0.221 NA
ATOM      3  C   UNL     1      -4.666  -2.554 -13.966  1.00  0.00    +0.122 A 
ATOM      4  C   UNL     1      -3.980  -3.036 -15.059  1.00  0.00    +0.013 A 
ATOM      5  C   UNL     1      -4.047  -2.196 -16.153  1.00  0.00    +0.122 A 
ATOM      6  N   UNL     1      -4.734  -1.035 -16.184  1.00  0.00    -0.221 NA
ENDROOT
BRANCH   1   7
ATOM      7  N   UNL     1      -6.127   0.502 -15.093  1.00  0.00    -0.337 N 
ATOM      8  C   UNL     1     -10.242   5.790 -17.185  1.00  0.00    +0.005 A 
ATOM      9  C   UNL     1      -9.320   4.823 -16.708  1.00  0.00    +0.042 A 
ATOM     10  C   UNL     1     -11.338   5.747 -16.353  1.00  0.00    +0.122 A 
ATOM     11  C   UNL     1      -9.899   4.204 -15.615  1.00  0.00    +0.108 A 
ATOM     12  N   UNL     1     -11.104   4.804 -15.390  1.00  0.00    -0.235 N 
ATOM     13  C   UNL     1      -9.485   3.167 -14.708  1.00  0.00    +0.156 C 
ATOM     14  N   UNL     1     -11.924   4.521 -14.369  1.00  0.00    -0.156 NA
ATOM     15  N   UNL     1      -8.313   2.431 -14.822  1.00  0.00    -0.351 N 
ATOM     16  N   UNL     1     -10.279   2.924 -13.701  1.00  0.00    -0.215 NA
ATOM     17  C   UNL     1     -11.461   3.607 -13.578  1.00  0.00    +0.247 C 
ATOM     18  C   UNL     1      -7.737   2.071 -16.130  1.00  0.00    +0.139 C 
ATOM     19  C   UNL     1      -7.849   1.615 -13.682  1.00  0.00    +0.139 C 
ATOM     20  C   UNL     1      -7.127   0.653 -16.149  1.00  0.00    +0.141 C 
ATOM     21  C   UNL     1      -6.372   1.195 -13.825  1.00  0.00    +0.141 C 
BRANCH   8  22
ATOM     22  C   UNL     1     -10.044   6.662 -18.334  1.00  0.00    +0.021 A 
ATOM     23  N   UNL     1      -9.936   7.520 -20.343  1.00  0.00    -0.275 N 
ATOM     24  C   UNL     1     -10.272   6.387 -19.662  1.00  0.00    +0.117 A 
ATOM     25  N   UNL     1      -9.502   8.517 -19.548  1.00  0.00    -0.181 NA
ATOM     26  C   UNL     1      -9.572   7.990 -18.321  1.00  0.00    +0.143 A 
ATOM     27  C   UNL     1     -10.002   7.727 -21.769  1.00  0.00    +0.173 C 
ENDBRANCH   8  22
ENDBRANCH   1   7
BRANCH   4  28
ATOM     28  C   UNL     1      -3.170  -4.325 -15.057  1.00  0.00    +0.067 C 
ATOM     29  C   UNL     1      -1.719  -3.927 -15.423  1.00  0.00    +0.038 C 
BRANCH  28  30
ATOM     30  N   UNL     1      -3.081  -4.914 -13.704  1.00  0.00    -0.318 NA
ATOM     31  H   UNL     1      -2.953  -5.921 -13.796  1.00  0.00    +0.120 HD
ATOM     32  H   UNL     1      -3.977  -4.800 -13.232  1.00  0.00    +0.120 HD
ENDBRANCH  28  30
BRANCH  28  33
ATOM     33  C   UNL     1      -3.778  -5.402 -15.984  1.00  0.00    -0.024 A 
ATOM     34  C   UNL     1      -3.062  -5.822 -17.131  1.00  0.00    +0.009 A 
ATOM     35  C   UNL     1      -5.041  -5.982 -15.756  1.00  0.00    +0.009 A 
ATOM     36  C   UNL     1      -3.581  -6.785 -17.998  1.00  0.00    +0.039 A 
ATOM     37  C   UNL     1      -5.559  -6.944 -16.628  1.00  0.00    +0.039 A 
ATOM     38  C   UNL     1      -4.826  -7.337 -17.739  1.00  0.00    +0.123 A 
ATOM     39  F   UNL     1      -5.327  -8.259 -18.570  1.00  0.00    -0.207 F 
ENDBRANCH  28  33
ENDBRANCH   4  28
TORSDOF 5
ENDMDL
MODEL 3
REMARK VINA RESULT:    -9.690      3.917     12.146
REMARK INTER + INTRA:         -12.927
REMARK INTER:                 -12.195
REMARK INTRA:                  -0.732
REMARK UNBOUND:                -0.689
REMARK SMILES Cn1cc(-c2cc3c(N4CCN(c5ncc([C@@](C)(N)c6ccc(F)cc6)cn5)CC4)ncnn3c2)cn1
REMARK SMILES IDX 13 1 14 2 15 3 16 4 27 5 28 6 12 7 5 8 6 9 35 10 7 11 34 12
REMARK SMILES IDX 8 13 33 14 9 15 31 16 32 17 10 18 30 19 11 20 29 21 4 22
REMARK SMILES IDX 2 23 3 24 37 25 36 26 1 27 17 28 18 29 19 30 20 33 21 34
REMARK SMILES IDX 26 35 22 36 25 37 23 38 24 39
REMARK H PARENT 19 31 19 32
ROOT
ATOM      1  C   UNL     1      -7.545   3.192 -16.480  1.00  0.00    +0.225 A 
ATOM      2  N   UNL     1      -8.759   3.158 -15.908  1.00  0.00    -0.221 NA
ATOM      3  C   UNL     1      -9.590   4.201 -16.125  1.00  0.00    +0.122 A 
ATOM      4  C   UNL     1      -9.269   5.310 -16.877  1.00  0.00    +0.013 A 
ATOM      5  C   UNL     1      -8.007   5.238 -17.434  1.00  0.00    +0.122 A 
ATOM      6  N   UNL     1      -7.147   4.215 -17.249  1.00  0.00    -0.221 NA
ENDROOT
BRANCH   1   7
ATOM      7  N   UNL     1      -6.672   2.150 -16.247  1.00  0.00    -0.337 N 
ATOM      8  C   UNL     1      -3.816  -4.256 -15.958  1.00  0.00    +0.005 A 
ATOM      9  C   UNL     1      -4.354  -2.946 -15.876  1.00  0.00    +0.042 A 
ATOM     10  C   UNL     1      -2.666  -4.174 -16.711  1.00  0.00    +0.122 A 
ATOM     11  C   UNL     1      -3.525  -2.113 -16.606  1.00  0.00    +0.108 A 
ATOM     12  N   UNL     1      -2.486  -2.867 -17.071  1.00  0.00    -0.235 N 
ATOM     13  C   UNL     1      -3.518  -0.706 -16.903  1.00  0.00    +0.156 C 
ATOM     14  N   UNL     1      -1.441  -2.392 -17.761  1.00  0.00    -0.156 NA
ATOM     15  N   UNL     1      -4.518   0.189 -16.542  1.00  0.00    -0.351 N 
ATOM     16  N   UNL     1      -2.479  -0.252 -17.549  1.00  0.00    -0.215 NA
ATOM     17  C   UNL     1      -1.491  -1.112 -17.951  1.00  0.00    +0.247 C 
ATOM     18  C   UNL     1      -5.938  -0.202 -16.490  1.00  0.00    +0.139 C 
ATOM     19  C   UNL     1      -4.266   1.641 -16.630  1.00  0.00    +0.139 C 
ATOM     20  C   UNL     1      -6.886   0.909 -16.989  1.00  0.00    +0.141 C 
ATOM     21  C   UNL     1      -5.301   2.464 -15.836  1.00  0.00    +0.141 C 
BRANCH   8  22
ATOM     22  C   UNL     1      -4.383  -5.449 -15.346  1.00  0.00    +0.021 A 
ATOM     23  N   UNL     1      -4.926  -7.072 -13.984  1.00  0.00    -0.275 N 
ATOM     24  C   UNL     1      -4.175  -5.937 -14.076  1.00  0.00    +0.117 A 
ATOM     25  N   UNL     1      -5.608  -7.360 -15.109  1.00  0.00    -0.181 NA
ATOM     26  C   UNL     1      -5.276  -6.364 -15.937  1.00  0.00    +0.143 A 
ATOM     27  C   UNL     1      -5.042  -7.945 -12.841  1.00  0.00    +0.173 C 
ENDBRANCH   8  22
ENDBRANCH   1   7
BRANCH   4  28
ATOM     28  C   UNL     1     -10.219   6.471 -17.135  1.00  0.00    +0.067 C 
ATOM     29  C   UNL     1     -11.645   5.936 -16.860  1.00  0.00    +0.038 C 
BRANCH  28  30
ATOM     30  N   UNL     1     -10.022   7.566 -16.161  1.00  0.00    -0.318 NA
ATOM     31  H   UNL     1     -10.163   7.194 -15.222  1.00  0.00    +0.120 HD
ATOM     32  H   UNL     1     -10.758   8.260 -16.286  1.00  0.00    +0.120 HD
ENDBRANCH  28  30
BRANCH  28  33
ATOM     33  C   UNL     1     -10.038   7.077 -18.545  1.00  0.00    -0.024 A 
ATOM     34  C   UNL     1     -10.409   6.322 -19.683  1.00  0.00    +0.009 A 
ATOM     35  C   UNL     1      -9.491   8.357 -18.763  1.00  0.00    +0.009 A 
ATOM     36  C   UNL     1     -10.251   6.829 -20.974  1.00  0.00    +0.039 A 
ATOM     37  C   UNL     1      -9.332   8.861 -20.057  1.00  0.00    +0.039 A 
ATOM     38  C   UNL     1      -9.714   8.095 -21.149  1.00  0.00    +0.123 A 
ATOM     39  F   UNL     1      -9.560   8.583 -22.386  1.00  0.00    -0.207 F 
ENDBRANCH  28  33
ENDBRANCH   4  28
TORSDOF 5
ENDMDL
MODEL 4
REMARK VINA RESULT:    -9.639      5.589      8.488
REMARK INTER + INTRA:         -12.864
REMARK INTER:                 -12.143
REMARK INTRA:                  -0.721
REMARK UNBOUND:                -0.689
REMARK SMILES Cn1cc(-c2cc3c(N4CCN(c5ncc([C@@](C)(N)c6ccc(F)cc6)cn5)CC4)ncnn3c2)cn1
REMARK SMILES IDX 13 1 14 2 15 3 16 4 27 5 28 6 12 7 5 8 6 9 35 10 7 11 34 12
REMARK SMILES IDX 8 13 33 14 9 15 31 16 32 17 10 18 30 19 11 20 29 21 4 22
REMARK SMILES IDX 2 23 3 24 37 25 36 26 1 27 17 28 18 29 19 30 20 33 21 34
REMARK SMILES IDX 26 35 22 36 25 37 23 38 24 39
REMARK H PARENT 19 31 19 32
ROOT
ATOM      1  C   UNL     1     -12.154   1.149 -11.814  1.00  0.00    +0.225 A 
ATOM      2  N   UNL     1     -13.434   1.527 -11.675  1.00  0.00    -0.221 NA
ATOM      3  C   UNL     1     -14.092   1.137 -10.561  1.00  0.00    +0.122 A 
ATOM      4  C   UNL     1     -13.545   0.357  -9.566  1.00  0.00    +0.013 A 
ATOM      5  C   UNL     1     -12.221   0.037  -9.797  1.00  0.00    +0.122 A 
ATOM      6  N   UNL     1     -11.524   0.409 -10.891  1.00  0.00    -0.221 NA
ENDROOT
BRANCH   1   7
ATOM      7  N   UNL     1     -11.474   1.513 -12.958  1.00  0.00    -0.337 N 
ATOM      8  C   UNL     1      -8.343   5.310 -17.964  1.00  0.00    +0.005 A 
ATOM      9  C   UNL     1      -9.044   4.470 -17.060  1.00  0.00    +0.042 A 
ATOM     10  C   UNL     1      -7.031   4.893 -17.967  1.00  0.00    +0.122 A 
ATOM     11  C   UNL     1      -8.126   3.586 -16.522  1.00  0.00    +0.108 A 
ATOM     12  N   UNL     1      -6.920   3.831 -17.111  1.00  0.00    -0.235 N 
ATOM     13  C   UNL     1      -8.202   2.508 -15.573  1.00  0.00    +0.156 C 
ATOM     14  N   UNL     1      -5.802   3.124 -16.896  1.00  0.00    -0.156 NA
ATOM     15  N   UNL     1      -9.339   2.158 -14.855  1.00  0.00    -0.351 N 
ATOM     16  N   UNL     1      -7.114   1.809 -15.397  1.00  0.00    -0.215 NA
ATOM     17  C   UNL     1      -5.965   2.148 -16.062  1.00  0.00    +0.247 C 
ATOM     18  C   UNL     1     -10.319   3.161 -14.400  1.00  0.00    +0.139 C 
ATOM     19  C   UNL     1      -9.387   0.862 -14.147  1.00  0.00    +0.139 C 
ATOM     20  C   UNL     1     -10.889   2.852 -12.999  1.00  0.00    +0.141 C 
ATOM     21  C   UNL     1     -10.822   0.465 -13.749  1.00  0.00    +0.141 C 
BRANCH   8  22
ATOM     22  C   UNL     1      -8.922   6.395 -18.741  1.00  0.00    +0.021 A 
ATOM     23  N   UNL     1      -9.776   7.642 -20.323  1.00  0.00    -0.275 N 
ATOM     24  C   UNL     1      -9.286   6.395 -20.068  1.00  0.00    +0.117 A 
ATOM     25  N   UNL     1      -9.756   8.458 -19.251  1.00  0.00    -0.181 NA
ATOM     26  C   UNL     1      -9.236   7.692 -18.287  1.00  0.00    +0.143 A 
ATOM     27  C   UNL     1     -10.287   8.133 -21.580  1.00  0.00    +0.173 C 
ENDBRANCH   8  22
ENDBRANCH   1   7
BRANCH   4  28
ATOM     28  C   UNL     1     -14.286  -0.060  -8.304  1.00  0.00    +0.067 C 
ATOM     29  C   UNL     1     -13.620   0.706  -7.135  1.00  0.00    +0.038 C 
BRANCH  28  30
ATOM     30  N   UNL     1     -15.691   0.398  -8.317  1.00  0.00    -0.318 NA
ATOM     31  H   UNL     1     -15.703   1.405  -8.480  1.00  0.00    +0.120 HD
ATOM     32  H   UNL     1     -16.091   0.274  -7.388  1.00  0.00    +0.120 HD
ENDBRANCH  28  30
BRANCH  28  33
ATOM     33  C   UNL     1     -14.308  -1.594  -8.116  1.00  0.00    -0.024 A 
ATOM     34  C   UNL     1     -14.120  -2.143  -6.825  1.00  0.00    +0.009 A 
ATOM     35  C   UNL     1     -14.488  -2.492  -9.186  1.00  0.00    +0.009 A 
ATOM     36  C   UNL     1     -14.123  -3.523  -6.615  1.00  0.00    +0.039 A 
ATOM     37  C   UNL     1     -14.488  -3.874  -8.973  1.00  0.00    +0.039 A 
ATOM     38  C   UNL     1     -14.307  -4.377  -7.693  1.00  0.00    +0.123 A 
ATOM     39  F   UNL     1     -14.309  -5.701  -7.494  1.00  0.00    -0.207 F 
ENDBRANCH  28  33
ENDBRANCH   4  28
TORSDOF 5
ENDMDL
MODEL 5
REMARK VINA RESULT:    -9.544      5.844      8.916
REMARK INTER + INTRA:         -12.743
REMARK INTER:                 -11.975
REMARK INTRA:                  -0.768
REMARK UNBOUND:                -0.689
REMARK SMILES Cn1cc(-c2cc3c(N4CCN(c5ncc([C@@](C)(N)c6ccc(F)cc6)cn5)CC4)ncnn3c2)cn1
REMARK SMILES IDX 13 1 14 2 15 3 16 4 27 5 28 6 12 7 5 8 6 9 35 10 7 11 34 12
REMARK SMILES IDX 8 13 33 14 9 15 31 16 32 17 10 18 30 19 11 20 29 21 4 22
REMARK SMILES IDX 2 23 3 24 37 25 36 26 1 27 17 28 18 29 19 30 20 33 21 34
REMARK SMILES IDX 26 35 22 36 25 37 23 38 24 39
REMARK H PARENT 19 31 19 32
ROOT
ATOM      1  C   UNL     1     -12.282   1.203 -12.002  1.00  0.00    +0.225 A 
ATOM      2  N   UNL     1     -13.461   1.800 -11.769  1.00  0.00    -0.221 NA
ATOM      3  C   UNL     1     -14.164   1.411 -10.682  1.00  0.00    +0.122 A 
ATOM      4  C   UNL     1     -13.763   0.425  -9.807  1.00  0.00    +0.013 A 
ATOM      5  C   UNL     1     -12.532  -0.112 -10.126  1.00  0.00    +0.122 A 
ATOM      6  N   UNL     1     -11.793   0.250 -11.197  1.00  0.00    -0.221 NA
ENDROOT
BRANCH   1   7
ATOM      7  N   UNL     1     -11.563   1.566 -13.122  1.00  0.00    -0.337 N 
ATOM      8  C   UNL     1      -8.352   5.363 -18.077  1.00  0.00    +0.005 A 
ATOM      9  C   UNL     1      -9.061   4.518 -17.184  1.00  0.00    +0.042 A 
ATOM     10  C   UNL     1      -7.025   5.002 -18.006  1.00  0.00    +0.122 A 
ATOM     11  C   UNL     1      -8.135   3.687 -16.580  1.00  0.00    +0.108 A 
ATOM     12  N   UNL     1      -6.913   3.967 -17.119  1.00  0.00    -0.235 N 
ATOM     13  C   UNL     1      -8.213   2.631 -15.606  1.00  0.00    +0.156 C 
ATOM     14  N   UNL     1      -5.779   3.313 -16.832  1.00  0.00    -0.156 NA
ATOM     15  N   UNL     1      -9.367   2.252 -14.933  1.00  0.00    -0.351 N 
ATOM     16  N   UNL     1      -7.107   1.983 -15.361  1.00  0.00    -0.215 NA
ATOM     17  C   UNL     1      -5.942   2.353 -15.980  1.00  0.00    +0.247 C 
ATOM     18  C   UNL     1     -10.408   3.224 -14.553  1.00  0.00    +0.139 C 
ATOM     19  C   UNL     1      -9.397   0.974 -14.194  1.00  0.00    +0.139 C 
ATOM     20  C   UNL     1     -11.032   2.928 -13.172  1.00  0.00    +0.141 C 
ATOM     21  C   UNL     1     -10.833   0.527 -13.853  1.00  0.00    +0.141 C 
BRANCH   8  22
ATOM     22  C   UNL     1      -8.937   6.404 -18.909  1.00  0.00    +0.021 A 
ATOM     23  N   UNL     1      -9.770   7.571 -20.561  1.00  0.00    -0.275 N 
ATOM     24  C   UNL     1      -9.248   6.351 -20.248  1.00  0.00    +0.117 A 
ATOM     25  N   UNL     1      -9.818   8.420 -19.516  1.00  0.00    -0.181 NA
ATOM     26  C   UNL     1      -9.311   7.702 -18.509  1.00  0.00    +0.143 A 
ATOM     27  C   UNL     1     -10.248   8.006 -21.851  1.00  0.00    +0.173 C 
ENDBRANCH   8  22
ENDBRANCH   1   7
BRANCH   4  28
ATOM     28  C   UNL     1     -14.550   0.008  -8.573  1.00  0.00    +0.067 C 
ATOM     29  C   UNL     1     -15.570   1.140  -8.304  1.00  0.00    +0.038 C 
BRANCH  28  30
ATOM     30  N   UNL     1     -15.367  -1.197  -8.827  1.00  0.00    -0.318 NA
ATOM     31  H   UNL     1     -16.285  -0.903  -9.162  1.00  0.00    +0.120 HD
ATOM     32  H   UNL     1     -15.545  -1.672  -7.943  1.00  0.00    +0.120 HD
ENDBRANCH  28  30
BRANCH  28  33
ATOM     33  C   UNL     1     -13.633  -0.308  -7.370  1.00  0.00    -0.024 A 
ATOM     34  C   UNL     1     -12.949   0.744  -6.717  1.00  0.00    +0.009 A 
ATOM     35  C   UNL     1     -13.420  -1.617  -6.894  1.00  0.00    +0.009 A 
ATOM     36  C   UNL     1     -12.103   0.499  -5.634  1.00  0.00    +0.039 A 
ATOM     37  C   UNL     1     -12.571  -1.860  -5.811  1.00  0.00    +0.039 A 
ATOM     38  C   UNL     1     -11.922  -0.803  -5.190  1.00  0.00    +0.123 A 
ATOM     39  F   UNL     1     -11.110  -1.041  -4.153  1.00  0.00    -0.207 F 
ENDBRANCH  28  33
ENDBRANCH   4  28
TORSDOF 5
ENDMDL
MODEL 6
REMARK VINA RESULT:    -9.321      2.043      2.786
REMARK INTER + INTRA:         -12.461
REMARK INTER:                 -11.709
REMARK INTRA:                  -0.752
REMARK UNBOUND:                -0.689
REMARK SMILES Cn1cc(-c2cc3c(N4CCN(c5ncc([C@@](C)(N)c6ccc(F)cc6)cn5)CC4)ncnn3c2)cn1
REMARK SMILES IDX 13 1 14 2 15 3 16 4 27 5 28 6 12 7 5 8 6 9 35 10 7 11 34 12
REMARK SMILES IDX 8 13 33 14 9 15 31 16 32 17 10 18 30 19 11 20 29 21 4 22
REMARK SMILES IDX 2 23 3 24 37 25 36 26 1 27 17 28 18 29 19 30 20 33 21 34
REMARK SMILES IDX 26 35 22 36 25 37 23 38 24 39
REMARK H PARENT 19 31 19 32
ROOT
ATOM      1  C   UNL     1      -5.964  -1.016 -14.986  1.00  0.00    +0.225 A 
ATOM      2  N   UNL     1      -4.742  -1.079 -14.433  1.00  0.00    -0.221 NA
ATOM      3  C   UNL     1      -4.121  -2.278 -14.404  1.00  0.00    +0.122 A 
ATOM      4  C   UNL     1      -4.665  -3.449 -14.884  1.00  0.00    +0.013 A 
ATOM      5  C   UNL     1      -5.914  -3.274 -15.446  1.00  0.00    +0.122 A 
ATOM      6  N   UNL     1      -6.569  -2.095 -15.502  1.00  0.00    -0.221 NA
ENDROOT
BRANCH   1   7
ATOM      7  N   UNL     1      -6.627   0.193 -15.000  1.00  0.00    -0.337 N 
ATOM      8  C   UNL     1     -10.368   5.755 -17.086  1.00  0.00    +0.005 A 
ATOM      9  C   UNL     1      -9.516   4.726 -16.608  1.00  0.00    +0.042 A 
ATOM     10  C   UNL     1     -11.477   5.771 -16.270  1.00  0.00    +0.122 A 
ATOM     11  C   UNL     1     -10.149   4.132 -15.531  1.00  0.00    +0.108 A 
ATOM     12  N   UNL     1     -11.318   4.804 -15.316  1.00  0.00    -0.235 N 
ATOM     13  C   UNL     1      -9.816   3.061 -14.631  1.00  0.00    +0.156 C 
ATOM     14  N   UNL     1     -12.170   4.561 -14.311  1.00  0.00    -0.156 NA
ATOM     15  N   UNL     1      -8.691   2.253 -14.737  1.00  0.00    -0.351 N 
ATOM     16  N   UNL     1     -10.639   2.856 -13.639  1.00  0.00    -0.215 NA
ATOM     17  C   UNL     1     -11.778   3.611 -13.524  1.00  0.00    +0.247 C 
ATOM     18  C   UNL     1      -8.118   1.873 -16.041  1.00  0.00    +0.139 C 
ATOM     19  C   UNL     1      -8.296   1.396 -13.600  1.00  0.00    +0.139 C 
ATOM     20  C   UNL     1      -7.598   0.420 -16.069  1.00  0.00    +0.141 C 
ATOM     21  C   UNL     1      -6.846   0.886 -13.727  1.00  0.00    +0.141 C 
BRANCH   8  22
ATOM     22  C   UNL     1     -10.098   6.625 -18.220  1.00  0.00    +0.021 A 
ATOM     23  N   UNL     1      -9.940   7.515 -20.213  1.00  0.00    -0.275 N 
ATOM     24  C   UNL     1     -10.390   6.412 -19.548  1.00  0.00    +0.117 A 
ATOM     25  N   UNL     1      -9.372   8.434 -19.408  1.00  0.00    -0.181 NA
ATOM     26  C   UNL     1      -9.472   7.888 -18.192  1.00  0.00    +0.143 A 
ATOM     27  C   UNL     1     -10.018   7.764 -21.631  1.00  0.00    +0.173 C 
ENDBRANCH   8  22
ENDBRANCH   1   7
BRANCH   4  28
ATOM     28  C   UNL     1      -3.950  -4.793 -14.867  1.00  0.00    +0.067 C 
ATOM     29  C   UNL     1      -4.170  -5.421 -16.264  1.00  0.00    +0.038 C 
BRANCH  28  30
ATOM     30  N   UNL     1      -2.486  -4.632 -14.741  1.00  0.00    -0.318 NA
ATOM     31  H   UNL     1      -2.093  -4.491 -15.671  1.00  0.00    +0.120 HD
ATOM     32  H   UNL     1      -2.081  -5.507 -14.411  1.00  0.00    +0.120 HD
ENDBRANCH  28  30
BRANCH  28  33
ATOM     33  C   UNL     1      -4.413  -5.690 -13.696  1.00  0.00    -0.024 A 
ATOM     34  C   UNL     1      -4.390  -7.097 -13.843  1.00  0.00    +0.009 A 
ATOM     35  C   UNL     1      -4.886  -5.169 -12.476  1.00  0.00    +0.009 A 
ATOM     36  C   UNL     1      -4.810  -7.941 -12.813  1.00  0.00    +0.039 A 
ATOM     37  C   UNL     1      -5.308  -6.017 -11.447  1.00  0.00    +0.039 A 
ATOM     38  C   UNL     1      -5.265  -7.392 -11.623  1.00  0.00    +0.123 A 
ATOM     39  F   UNL     1      -5.670  -8.200 -10.635  1.00  0.00    -0.207 F 
ENDBRANCH  28  33
ENDBRANCH   4  28
TORSDOF 5
ENDMDL
MODEL 7
REMARK VINA RESULT:    -9.071      3.298     11.559
REMARK INTER + INTRA:         -12.146
REMARK INTER:                 -11.443
REMARK INTRA:                  -0.703
REMARK UNBOUND:                -0.689
REMARK SMILES Cn1cc(-c2cc3c(N4CCN(c5ncc([C@@](C)(N)c6ccc(F)cc6)cn5)CC4)ncnn3c2)cn1
REMARK SMILES IDX 13 1 14 2 15 3 16 4 27 5 28 6 12 7 5 8 6 9 35 10 7 11 34 12
REMARK SMILES IDX 8 13 33 14 9 15 31 16 32 17 10 18 30 19 11 20 29 21 4 22
REMARK SMILES IDX 2 23 3 24 37 25 36 26 1 27 17 28 18 29 19 30 20 33 21 34
REMARK SMILES IDX 26 35 22 36 25 37 23 38 24 39
REMARK H PARENT 19 31 19 32
ROOT
ATOM      1  C   UNL     1      -9.049   2.496 -15.635  1.00  0.00    +0.225 A 
ATOM      2  N   UNL     1      -8.420   3.247 -16.552  1.00  0.00    -0.221 NA
ATOM      3  C   UNL     1      -8.973   4.434 -16.885  1.00  0.00    +0.122 A 
ATOM      4  C   UNL     1     -10.153   4.918 -16.364  1.00  0.00    +0.013 A 
ATOM      5  C   UNL     1     -10.710   4.079 -15.420  1.00  0.00    +0.122 A 
ATOM      6  N   UNL     1     -10.190   2.888 -15.052  1.00  0.00    -0.221 NA
ENDROOT
BRANCH   1   7
ATOM      7  N   UNL     1      -8.516   1.268 -15.302  1.00  0.00    -0.337 N 
ATOM      8  C   UNL     1      -4.411  -4.424 -15.127  1.00  0.00    +0.005 A 
ATOM      9  C   UNL     1      -5.354  -3.365 -15.165  1.00  0.00    +0.042 A 
ATOM     10  C   UNL     1      -3.897  -4.460 -13.849  1.00  0.00    +0.122 A 
ATOM     11  C   UNL     1      -5.364  -2.775 -13.914  1.00  0.00    +0.108 A 
ATOM     12  N   UNL     1      -4.504  -3.476 -13.119  1.00  0.00    -0.235 N 
ATOM     13  C   UNL     1      -6.088  -1.683 -13.320  1.00  0.00    +0.156 C 
ATOM     14  N   UNL     1      -4.302  -3.244 -11.815  1.00  0.00    -0.156 NA
ATOM     15  N   UNL     1      -6.963  -0.845 -13.999  1.00  0.00    -0.351 N 
ATOM     16  N   UNL     1      -5.903  -1.488 -12.043  1.00  0.00    -0.215 NA
ATOM     17  C   UNL     1      -5.020  -2.273 -11.349  1.00  0.00    +0.247 C 
ATOM     18  C   UNL     1      -6.753  -0.467 -15.409  1.00  0.00    +0.139 C 
ATOM     19  C   UNL     1      -7.870   0.037 -13.237  1.00  0.00    +0.139 C 
ATOM     20  C   UNL     1      -7.135   1.000 -15.701  1.00  0.00    +0.141 C 
ATOM     21  C   UNL     1      -9.020   0.586 -14.106  1.00  0.00    +0.141 C 
BRANCH   8  22
ATOM     22  C   UNL     1      -4.070  -5.301 -16.236  1.00  0.00    +0.021 A 
ATOM     23  N   UNL     1      -4.022  -6.895 -17.734  1.00  0.00    -0.275 N 
ATOM     24  C   UNL     1      -4.730  -6.430 -16.665  1.00  0.00    +0.117 A 
ATOM     25  N   UNL     1      -2.941  -6.148 -18.030  1.00  0.00    -0.181 NA
ATOM     26  C   UNL     1      -2.976  -5.174 -17.115  1.00  0.00    +0.143 A 
ATOM     27  C   UNL     1      -4.318  -8.062 -18.529  1.00  0.00    +0.173 C 
ENDBRANCH   8  22
ENDBRANCH   1   7
BRANCH   4  28
ATOM     28  C   UNL     1     -10.758   6.266 -16.729  1.00  0.00    +0.067 C 
ATOM     29  C   UNL     1     -12.285   6.129 -16.517  1.00  0.00    +0.038 C 
BRANCH  28  30
ATOM     30  N   UNL     1     -10.331   7.328 -15.795  1.00  0.00    -0.318 NA
ATOM     31  H   UNL     1     -11.043   8.059 -15.787  1.00  0.00    +0.120 HD
ATOM     32  H   UNL     1      -9.492   7.777 -16.161  1.00  0.00    +0.120 HD
ENDBRANCH  28  30
BRANCH  28  33
ATOM     33  C   UNL     1     -10.361   6.722 -18.151  1.00  0.00    -0.024 A 
ATOM     34  C   UNL     1      -9.580   7.890 -18.319  1.00  0.00    +0.009 A 
ATOM     35  C   UNL     1     -10.762   6.035 -19.314  1.00  0.00    +0.009 A 
ATOM     36  C   UNL     1      -9.209   8.341 -19.587  1.00  0.00    +0.039 A 
ATOM     37  C   UNL     1     -10.391   6.490 -20.583  1.00  0.00    +0.039 A 
ATOM     38  C   UNL     1      -9.619   7.635 -20.709  1.00  0.00    +0.123 A 
ATOM     39  F   UNL     1      -9.266   8.066 -21.926  1.00  0.00    -0.207 F 
ENDBRANCH  28  33
ENDBRANCH   4  28
TORSDOF 5
ENDMDL
MODEL 8
REMARK VINA RESULT:    -9.038      7.375      8.791
REMARK INTER + INTRA:         -12.104
REMARK INTER:                 -11.379
REMARK INTRA:                  -0.725
REMARK UNBOUND:                -0.689
REMARK SMILES Cn1cc(-c2cc3c(N4CCN(c5ncc([C@@](C)(N)c6ccc(F)cc6)cn5)CC4)ncnn3c2)cn1
REMARK SMILES IDX 13 1 14 2 15 3 16 4 27 5 28 6 12 7 5 8 6 9 35 10 7 11 34 12
REMARK SMILES IDX 8 13 33 14 9 15 31 16 32 17 10 18 30 19 11 20 29 21 4 22
REMARK SMILES IDX 2 23 3 24 37 25 36 26 1 27 17 28 18 29 19 30 20 33 21 34
REMARK SMILES IDX 26 35 22 36 25 37 23 38 24 39
REMARK H PARENT 19 31 19 32
ROOT
ATOM      1  C   UNL     1     -11.482  -3.108  -9.552  1.00  0.00    +0.225 A 
ATOM      2  N   UNL     1     -11.168  -3.255  -8.255  1.00  0.00    -0.221 NA
ATOM      3  C   UNL     1     -11.456  -4.434  -7.664  1.00  0.00    +0.122 A 
ATOM      4  C   UNL     1     -12.073  -5.492  -8.295  1.00  0.00    +0.013 A 
ATOM      5  C   UNL     1     -12.339  -5.246  -9.627  1.00  0.00    +0.122 A 
ATOM      6  N   UNL     1     -12.063  -4.086 -10.260  1.00  0.00    -0.221 NA
ENDROOT
BRANCH   1   7
ATOM      7  N   UNL     1     -11.222  -1.901 -10.167  1.00  0.00    -0.337 N 
ATOM      8  C   UNL     1      -9.422   2.941 -14.920  1.00  0.00    +0.005 A 
ATOM      9  C   UNL     1      -9.701   2.034 -13.865  1.00  0.00    +0.042 A 
ATOM     10  C   UNL     1     -10.551   3.710 -15.099  1.00  0.00    +0.122 A 
ATOM     11  C   UNL     1     -11.001   2.265 -13.454  1.00  0.00    +0.108 A 
ATOM     12  N   UNL     1     -11.487   3.309 -14.185  1.00  0.00    -0.235 N 
ATOM     13  C   UNL     1     -11.856   1.695 -12.447  1.00  0.00    +0.156 C 
ATOM     14  N   UNL     1     -12.694   3.867 -14.019  1.00  0.00    -0.156 NA
ATOM     15  N   UNL     1     -11.530   0.604 -11.651  1.00  0.00    -0.351 N 
ATOM     16  N   UNL     1     -13.015   2.268 -12.276  1.00  0.00    -0.215 NA
ATOM     17  C   UNL     1     -13.384   3.324 -13.068  1.00  0.00    +0.247 C 
ATOM     18  C   UNL     1     -10.698  -0.507 -12.145  1.00  0.00    +0.139 C 
ATOM     19  C   UNL     1     -12.348   0.300 -10.459  1.00  0.00    +0.139 C 
ATOM     20  C   UNL     1     -11.166  -1.884 -11.628  1.00  0.00    +0.141 C 
ATOM     21  C   UNL     1     -11.635  -0.667  -9.491  1.00  0.00    +0.141 C 
BRANCH   8  22
ATOM     22  C   UNL     1      -8.171   3.034 -15.656  1.00  0.00    +0.021 A 
ATOM     23  N   UNL     1      -6.126   2.779 -16.391  1.00  0.00    -0.275 N 
ATOM     24  C   UNL     1      -7.002   2.339 -15.443  1.00  0.00    +0.117 A 
ATOM     25  N   UNL     1      -6.643   3.716 -17.208  1.00  0.00    -0.181 NA
ATOM     26  C   UNL     1      -7.893   3.867 -16.758  1.00  0.00    +0.143 A 
ATOM     27  C   UNL     1      -4.763   2.346 -16.579  1.00  0.00    +0.173 C 
ENDBRANCH   8  22
ENDBRANCH   1   7
BRANCH   4  28
ATOM     28  C   UNL     1     -12.375  -6.826  -7.626  1.00  0.00    +0.067 C 
ATOM     29  C   UNL     1     -11.895  -7.923  -8.608  1.00  0.00    +0.038 C 
BRANCH  28  30
ATOM     30  N   UNL     1     -11.569  -7.021  -6.403  1.00  0.00    -0.318 NA
ATOM     31  H   UNL     1     -12.019  -7.732  -5.827  1.00  0.00    +0.120 HD
ATOM     32  H   UNL     1     -11.598  -6.168  -5.845  1.00  0.00    +0.120 HD
ENDBRANCH  28  30
BRANCH  28  33
ATOM     33  C   UNL     1     -13.861  -6.956  -7.219  1.00  0.00    -0.024 A 
ATOM     34  C   UNL     1     -14.578  -5.805  -6.816  1.00  0.00    +0.009 A 
ATOM     35  C   UNL     1     -14.545  -8.187  -7.208  1.00  0.00    +0.009 A 
ATOM     36  C   UNL     1     -15.918  -5.882  -6.431  1.00  0.00    +0.039 A 
ATOM     37  C   UNL     1     -15.886  -8.261  -6.820  1.00  0.00    +0.039 A 
ATOM     38  C   UNL     1     -16.560  -7.111  -6.437  1.00  0.00    +0.123 A 
ATOM     39  F   UNL     1     -17.845  -7.188  -6.066  1.00  0.00    -0.207 F 
ENDBRANCH  28  33
ENDBRANCH   4  28
TORSDOF 5
ENDMDL
MODEL 9
REMARK VINA RESULT:    -8.846      5.595      8.673
REMARK INTER + INTRA:         -11.862
REMARK INTER:                 -11.053
REMARK INTRA:                  -0.809
REMARK UNBOUND:                -0.689
REMARK SMILES Cn1cc(-c2cc3c(N4CCN(c5ncc([C@@](C)(N)c6ccc(F)cc6)cn5)CC4)ncnn3c2)cn1
REMARK SMILES IDX 13 1 14 2 15 3 16 4 27 5 28 6 12 7 5 8 6 9 35 10 7 11 34 12
REMARK SMILES IDX 8 13 33 14 9 15 31 16 32 17 10 18 30 19 11 20 29 21 4 22
REMARK SMILES IDX 2 23 3 24 37 25 36 26 1 27 17 28 18 29 19 30 20 33 21 34
REMARK SMILES IDX 26 35 22 36 25 37 23 38 24 39
REMARK H PARENT 19 31 19 32
ROOT
ATOM      1  C   UNL     1     -11.156   0.108 -11.576  1.00  0.00    +0.225 A 
ATOM      2  N   UNL     1     -10.757  -1.111 -11.180  1.00  0.00    -0.221 NA
ATOM      3  C   UNL     1     -11.200  -1.565  -9.987  1.00  0.00    +0.122 A 
ATOM      4  C   UNL     1     -12.017  -0.853  -9.136  1.00  0.00    +0.013 A 
ATOM      5  C   UNL     1     -12.382   0.378  -9.643  1.00  0.00    +0.122 A 
ATOM      6  N   UNL     1     -11.969   0.869 -10.831  1.00  0.00    -0.221 NA
ENDROOT
BRANCH   1   7
ATOM      7  N   UNL     1     -10.692   0.601 -12.777  1.00  0.00    -0.337 N 
ATOM      8  C   UNL     1      -8.198   4.901 -17.734  1.00  0.00    +0.005 A 
ATOM      9  C   UNL     1      -8.801   3.988 -16.831  1.00  0.00    +0.042 A 
ATOM     10  C   UNL     1      -6.990   4.358 -18.110  1.00  0.00    +0.122 A 
ATOM     11  C   UNL     1      -7.925   2.930 -16.667  1.00  0.00    +0.108 A 
ATOM     12  N   UNL     1      -6.851   3.152 -17.479  1.00  0.00    -0.235 N 
ATOM     13  C   UNL     1      -7.949   1.711 -15.904  1.00  0.00    +0.156 C 
ATOM     14  N   UNL     1      -5.826   2.305 -17.645  1.00  0.00    -0.156 NA
ATOM     15  N   UNL     1      -8.944   1.356 -15.001  1.00  0.00    -0.351 N 
ATOM     16  N   UNL     1      -6.960   0.882 -16.099  1.00  0.00    -0.215 NA
ATOM     17  C   UNL     1      -5.943   1.216 -16.956  1.00  0.00    +0.247 C 
ATOM     18  C   UNL     1      -9.650   2.356 -14.180  1.00  0.00    +0.139 C 
ATOM     19  C   UNL     1      -9.023  -0.035 -14.510  1.00  0.00    +0.139 C 
ATOM     20  C   UNL     1      -9.945   1.858 -12.749  1.00  0.00    +0.141 C 
ATOM     21  C   UNL     1     -10.382  -0.347 -13.851  1.00  0.00    +0.141 C 
BRANCH   8  22
ATOM     22  C   UNL     1      -8.769   6.164 -18.176  1.00  0.00    +0.021 A 
ATOM     23  N   UNL     1      -9.540   7.840 -19.353  1.00  0.00    -0.275 N 
ATOM     24  C   UNL     1      -8.991   6.596 -19.464  1.00  0.00    +0.117 A 
ATOM     25  N   UNL     1      -9.691   8.250 -18.079  1.00  0.00    -0.181 NA
ATOM     26  C   UNL     1      -9.221   7.223 -17.364  1.00  0.00    +0.143 A 
ATOM     27  C   UNL     1      -9.951   8.706 -20.431  1.00  0.00    +0.173 C 
ENDBRANCH   8  22
ENDBRANCH   1   7
BRANCH   4  28
ATOM     28  C   UNL     1     -12.529  -1.381  -7.803  1.00  0.00    +0.067 C 
ATOM     29  C   UNL     1     -11.877  -2.771  -7.606  1.00  0.00    +0.038 C 
BRANCH  28  30
ATOM     30  N   UNL     1     -12.047  -0.563  -6.670  1.00  0.00    -0.318 NA
ATOM     31  H   UNL     1     -11.042  -0.707  -6.569  1.00  0.00    +0.120 HD
ATOM     32  H   UNL     1     -12.455  -0.919  -5.806  1.00  0.00    +0.120 HD
ENDBRANCH  28  30
BRANCH  28  33
ATOM     33  C   UNL     1     -14.072  -1.397  -7.732  1.00  0.00    -0.024 A 
ATOM     34  C   UNL     1     -14.788  -2.477  -8.302  1.00  0.00    +0.009 A 
ATOM     35  C   UNL     1     -14.820  -0.362  -7.137  1.00  0.00    +0.009 A 
ATOM     36  C   UNL     1     -16.182  -2.523  -8.267  1.00  0.00    +0.039 A 
ATOM     37  C   UNL     1     -16.217  -0.410  -7.105  1.00  0.00    +0.039 A 
ATOM     38  C   UNL     1     -16.885  -1.487  -7.668  1.00  0.00    +0.123 A 
ATOM     39  F   UNL     1     -18.223  -1.529  -7.635  1.00  0.00    -0.207 F 
ENDBRANCH  28  33
ENDBRANCH   4  28
TORSDOF 5
ENDMDL
MODEL 10
REMARK VINA RESULT:    -8.553      6.051     10.911
REMARK INTER + INTRA:         -11.492
REMARK INTER:                 -10.795
REMARK INTRA:                  -0.697
REMARK UNBOUND:                -0.689
REMARK SMILES Cn1cc(-c2cc3c(N4CCN(c5ncc([C@@](C)(N)c6ccc(F)cc6)cn5)CC4)ncnn3c2)cn1
REMARK SMILES IDX 13 1 14 2 15 3 16 4 27 5 28 6 12 7 5 8 6 9 35 10 7 11 34 12
REMARK SMILES IDX 8 13 33 14 9 15 31 16 32 17 10 18 30 19 11 20 29 21 4 22
REMARK SMILES IDX 2 23 3 24 37 25 36 26 1 27 17 28 18 29 19 30 20 33 21 34
REMARK SMILES IDX 26 35 22 36 25 37 23 38 24 39
REMARK H PARENT 19 31 19 32
ROOT
ATOM      1  C   UNL     1      -9.137   1.493 -13.811  1.00  0.00    +0.225 A 
ATOM      2  N   UNL     1      -8.143   2.332 -13.480  1.00  0.00    -0.221 NA
ATOM      3  C   UNL     1      -7.514   2.993 -14.476  1.00  0.00    +0.122 A 
ATOM      4  C   UNL     1      -7.808   2.849 -15.815  1.00  0.00    +0.013 A 
ATOM      5  C   UNL     1      -8.855   1.979 -16.047  1.00  0.00    +0.122 A 
ATOM      6  N   UNL     1      -9.515   1.302 -15.083  1.00  0.00    -0.221 NA
ENDROOT
BRANCH   1   7
ATOM      7  N   UNL     1      -9.773   0.787 -12.811  1.00  0.00    -0.337 N 
ATOM      8  C   UNL     1     -14.704  -1.804  -8.540  1.00  0.00    +0.005 A 
ATOM      9  C   UNL     1     -13.628  -1.254  -9.284  1.00  0.00    +0.042 A 
ATOM     10  C   UNL     1     -14.678  -3.166  -8.741  1.00  0.00    +0.122 A 
ATOM     11  C   UNL     1     -12.998  -2.299  -9.934  1.00  0.00    +0.108 A 
ATOM     12  N   UNL     1     -13.622  -3.455  -9.563  1.00  0.00    -0.235 N 
ATOM     13  C   UNL     1     -11.867  -2.401 -10.816  1.00  0.00    +0.156 C 
ATOM     14  N   UNL     1     -13.245  -4.685  -9.934  1.00  0.00    -0.156 NA
ATOM     15  N   UNL     1     -11.151  -1.323 -11.322  1.00  0.00    -0.351 N 
ATOM     16  N   UNL     1     -11.492  -3.607 -11.145  1.00  0.00    -0.215 NA
ATOM     17  C   UNL     1     -12.196  -4.693 -10.694  1.00  0.00    +0.247 C 
ATOM     18  C   UNL     1     -11.794  -0.036 -11.643  1.00  0.00    +0.139 C 
ATOM     19  C   UNL     1      -9.841  -1.552 -11.963  1.00  0.00    +0.139 C 
ATOM     20  C   UNL     1     -11.222   0.620 -12.917  1.00  0.00    +0.141 C 
ATOM     21  C   UNL     1      -9.022  -0.252 -12.102  1.00  0.00    +0.141 C 
BRANCH   8  22
ATOM     22  C   UNL     1     -15.643  -1.055  -7.718  1.00  0.00    +0.021 A 
ATOM     23  N   UNL     1     -17.110  -0.428  -6.222  1.00  0.00    -0.275 N 
ATOM     24  C   UNL     1     -16.392  -1.504  -6.655  1.00  0.00    +0.117 A 
ATOM     25  N   UNL     1     -16.882   0.693  -6.932  1.00  0.00    -0.181 NA
ATOM     26  C   UNL     1     -15.983   0.306  -7.843  1.00  0.00    +0.143 A 
ATOM     27  C   UNL     1     -18.045  -0.395  -5.124  1.00  0.00    +0.173 C 
ENDBRANCH   8  22
ENDBRANCH   1   7
BRANCH   4  28
ATOM     28  C   UNL     1      -7.109   3.614 -16.930  1.00  0.00    +0.067 C 
ATOM     29  C   UNL     1      -5.751   4.081 -16.351  1.00  0.00    +0.038 C 
BRANCH  28  30
ATOM     30  N   UNL     1      -6.764   2.733 -18.065  1.00  0.00    -0.318 NA
ATOM     31  H   UNL     1      -7.609   2.559 -18.610  1.00  0.00    +0.120 HD
ATOM     32  H   UNL     1      -6.486   1.821 -17.706  1.00  0.00    +0.120 HD
ENDBRANCH  28  30
BRANCH  28  33
ATOM     33  C   UNL     1      -7.980   4.761 -17.490  1.00  0.00    -0.024 A 
ATOM     34  C   UNL     1      -7.748   5.238 -18.802  1.00  0.00    +0.009 A 
ATOM     35  C   UNL     1      -8.998   5.384 -16.741  1.00  0.00    +0.009 A 
ATOM     36  C   UNL     1      -8.506   6.279 -19.341  1.00  0.00    +0.039 A 
ATOM     37  C   UNL     1      -9.753   6.428 -17.283  1.00  0.00    +0.039 A 
ATOM     38  C   UNL     1      -9.503   6.866 -18.575  1.00  0.00    +0.123 A 
ATOM     39  F   UNL     1     -10.230   7.866 -19.089  1.00  0.00    -0.207 F 
ENDBRANCH  28  33
ENDBRANCH   4  28
TORSDOF 5
ENDMDL
