MODEL 1
REMARK VINA RESULT:   -10.329      0.000      0.000
REMARK INTER + INTRA:         -14.397
REMARK INTER:                 -13.952
REMARK INTRA:                  -0.445
REMARK UNBOUND:                -0.445
REMARK SMILES Cc1ccc(C(=O)Nc2ccc(CN3CCN(C)CC3)c(C(F)(F)F)c2)cc1C#Cc1cnc2cccnn12
REMARK SMILES IDX 9 1 10 2 11 3 12 4 21 5 26 6 8 7 6 8 7 9 5 11 2 12 3 13
REMARK SMILES IDX 28 14 4 15 27 16 29 17 1 18 30 19 31 20 32 21 39 22 33 23
REMARK SMILES IDX 38 24 34 25 37 26 35 27 36 28 22 29 23 30 24 31 25 32 13 33
REMARK SMILES IDX 14 34 15 35 20 36 16 37 19 38 17 39 18 40
REMARK H PARENT 8 10
ROOT
ATOM      1  C   UNL     1     -11.846   1.171 -11.640  1.00  0.00    +0.042 A 
ATOM      2  C   UNL     1     -13.180   1.554 -11.790  1.00  0.00    +0.026 A 
ATOM      3  C   UNL     1     -14.089   1.396 -10.742  1.00  0.00    +0.008 A 
ATOM      4  C   UNL     1     -13.688   0.844  -9.514  1.00  0.00    -0.022 A 
ATOM      5  C   UNL     1     -12.337   0.464  -9.343  1.00  0.00    +0.062 A 
ATOM      6  C   UNL     1     -11.438   0.624 -10.422  1.00  0.00    +0.039 A 
ENDROOT
BRANCH   1   7
ATOM      7  N   UNL     1     -10.994   1.353 -12.750  1.00  0.00    -0.322 N 
ATOM      8  C   UNL     1     -10.441   0.374 -13.555  1.00  0.00    +0.255 C 
ATOM      9  O   UNL     1     -10.532  -0.838 -13.405  1.00  0.00    -0.269 OA
ATOM     10  H   UNL     1     -10.710   2.307 -12.929  1.00  0.00    +0.170 HD
BRANCH   8  11
ATOM     11  C   UNL     1      -9.617   0.884 -14.686  1.00  0.00    +0.041 A 
ATOM     12  C   UNL     1      -8.023   1.775 -16.828  1.00  0.00    -0.035 A 
ATOM     13  C   UNL     1      -7.925   0.453 -16.367  1.00  0.00    +0.005 A 
ATOM     14  C   UNL     1      -8.943   2.644 -16.216  1.00  0.00    +0.029 A 
ATOM     15  C   UNL     1      -8.719   0.010 -15.307  1.00  0.00    +0.014 A 
ATOM     16  C   UNL     1      -9.740   2.198 -15.153  1.00  0.00    +0.031 A 
ATOM     17  C   UNL     1      -9.101   4.000 -16.655  1.00  0.00    -0.060 C 
ATOM     18  C   UNL     1      -7.158   2.223 -17.976  1.00  0.00    +0.045 C 
BRANCH  17  19
ATOM     19  C   UNL     1      -9.248   5.137 -17.010  1.00  0.00    -0.040 C 
ATOM     20  C   UNL     1      -9.419   6.478 -17.442  1.00  0.00    +0.135 A 
ATOM     21  C   UNL     1      -9.498   7.621 -16.680  1.00  0.00    +0.151 A 
ATOM     22  N   UNL     1      -9.539   6.902 -18.745  1.00  0.00    -0.205 N 
ATOM     23  N   UNL     1      -9.660   8.737 -17.465  1.00  0.00    -0.234 NA
ATOM     24  N   UNL     1      -9.522   6.108 -19.863  1.00  0.00    -0.174 NA
ATOM     25  C   UNL     1      -9.679   8.283 -18.700  1.00  0.00    +0.154 A 
ATOM     26  C   UNL     1      -9.648   6.786 -20.959  1.00  0.00    +0.134 C 
ATOM     27  C   UNL     1      -9.814   8.960 -19.934  1.00  0.00    +0.051 C 
ATOM     28  C   UNL     1      -9.802   8.257 -21.073  1.00  0.00    +0.026 C 
ENDBRANCH  17  19
ENDBRANCH   8  11
ENDBRANCH   1   7
BRANCH   5  29
ATOM     29  C   UNL     1     -11.812  -0.144  -8.056  1.00  0.00    +0.416 C 
ATOM     30  F   UNL     1     -10.482   0.103  -7.863  1.00  0.00    -0.166 F 
ATOM     31  F   UNL     1     -12.412   0.341  -6.930  1.00  0.00    -0.166 F 
ATOM     32  F   UNL     1     -11.931  -1.500  -8.009  1.00  0.00    -0.166 F 
ENDBRANCH   5  29
BRANCH   4  33
ATOM     33  C   UNL     1     -14.724   0.682  -8.416  1.00  0.00    +0.120 C 
BRANCH  33  34
ATOM     34  N   UNL     1     -15.470  -0.572  -8.531  1.00  0.00    -0.297 NA
ATOM     35  C   UNL     1     -15.771  -1.207  -7.231  1.00  0.00    +0.100 C 
ATOM     36  C   UNL     1     -14.782  -1.508  -9.443  1.00  0.00    +0.100 C 
ATOM     37  C   UNL     1     -14.857  -2.405  -6.889  1.00  0.00    +0.099 C 
ATOM     38  C   UNL     1     -15.210  -2.977  -9.237  1.00  0.00    +0.099 C 
ATOM     39  N   UNL     1     -14.935  -3.496  -7.881  1.00  0.00    -0.304 NA
ATOM     40  C   UNL     1     -13.732  -4.321  -7.843  1.00  0.00    +0.105 C 
ENDBRANCH  33  34
ENDBRANCH   4  33
TORSDOF 6
ENDMDL
MODEL 2
REMARK VINA RESULT:   -10.281      3.557     12.271
REMARK INTER + INTRA:         -14.332
REMARK INTER:                 -13.673
REMARK INTRA:                  -0.659
REMARK UNBOUND:                -0.445
REMARK SMILES Cc1ccc(C(=O)Nc2ccc(CN3CCN(C)CC3)c(C(F)(F)F)c2)cc1C#Cc1cnc2cccnn12
REMARK SMILES IDX 9 1 10 2 11 3 12 4 21 5 26 6 8 7 6 8 7 9 5 11 2 12 3 13
REMARK SMILES IDX 28 14 4 15 27 16 29 17 1 18 30 19 31 20 32 21 39 22 33 23
REMARK SMILES IDX 38 24 34 25 37 26 35 27 36 28 22 29 23 30 24 31 25 32 13 33
REMARK SMILES IDX 14 34 15 35 20 36 16 37 19 38 17 39 18 40
REMARK H PARENT 8 10
ROOT
ATOM      1  C   UNL     1     -10.756   2.079 -13.219  1.00  0.00    +0.042 A 
ATOM      2  C   UNL     1     -11.312   3.307 -13.581  1.00  0.00    +0.026 A 
ATOM      3  C   UNL     1     -10.919   3.949 -14.756  1.00  0.00    +0.008 A 
ATOM      4  C   UNL     1      -9.953   3.379 -15.603  1.00  0.00    -0.022 A 
ATOM      5  C   UNL     1      -9.391   2.129 -15.256  1.00  0.00    +0.062 A 
ATOM      6  C   UNL     1      -9.798   1.505 -14.054  1.00  0.00    +0.039 A 
ENDROOT
BRANCH   1   7
ATOM      7  N   UNL     1     -11.199   1.503 -12.009  1.00  0.00    -0.322 N 
ATOM      8  C   UNL     1     -12.497   1.439 -11.534  1.00  0.00    +0.255 C 
ATOM      9  O   UNL     1     -13.492   1.938 -12.046  1.00  0.00    -0.269 OA
ATOM     10  H   UNL     1     -10.471   1.160 -11.397  1.00  0.00    +0.170 HD
BRANCH   8  11
ATOM     11  C   UNL     1     -12.655   0.722 -10.238  1.00  0.00    +0.041 A 
ATOM     12  C   UNL     1     -12.875  -0.646  -7.787  1.00  0.00    -0.035 A 
ATOM     13  C   UNL     1     -11.619  -0.435  -8.378  1.00  0.00    +0.005 A 
ATOM     14  C   UNL     1     -14.022  -0.147  -8.430  1.00  0.00    +0.029 A 
ATOM     15  C   UNL     1     -11.510   0.247  -9.592  1.00  0.00    +0.014 A 
ATOM     16  C   UNL     1     -13.910   0.538  -9.647  1.00  0.00    +0.031 A 
ATOM     17  C   UNL     1     -15.329  -0.315  -7.867  1.00  0.00    -0.060 C 
ATOM     18  C   UNL     1     -12.961  -1.380  -6.477  1.00  0.00    +0.045 C 
BRANCH  17  19
ATOM     19  C   UNL     1     -16.432  -0.446  -7.410  1.00  0.00    -0.040 C 
ATOM     20  C   UNL     1     -17.737  -0.585  -6.871  1.00  0.00    +0.135 A 
ATOM     21  C   UNL     1     -18.295  -1.680  -6.249  1.00  0.00    +0.151 A 
ATOM     22  N   UNL     1     -18.720   0.376  -6.864  1.00  0.00    -0.205 N 
ATOM     23  N   UNL     1     -19.587  -1.428  -5.856  1.00  0.00    -0.234 NA
ATOM     24  N   UNL     1     -18.622   1.642  -7.382  1.00  0.00    -0.174 NA
ATOM     25  C   UNL     1     -19.821  -0.188  -6.232  1.00  0.00    +0.154 A 
ATOM     26  C   UNL     1     -19.708   2.331  -7.224  1.00  0.00    +0.134 C 
ATOM     27  C   UNL     1     -20.973   0.619  -6.095  1.00  0.00    +0.051 C 
ATOM     28  C   UNL     1     -20.957   1.870  -6.571  1.00  0.00    +0.026 C 
ENDBRANCH  17  19
ENDBRANCH   8  11
ENDBRANCH   1   7
BRANCH   5  29
ATOM     29  C   UNL     1      -8.339   1.438 -16.104  1.00  0.00    +0.416 C 
ATOM     30  F   UNL     1      -7.927   0.252 -15.564  1.00  0.00    -0.166 F 
ATOM     31  F   UNL     1      -8.769   1.108 -17.357  1.00  0.00    -0.166 F 
ATOM     32  F   UNL     1      -7.202   2.171 -16.259  1.00  0.00    -0.166 F 
ENDBRANCH   5  29
BRANCH   4  33
ATOM     33  C   UNL     1      -9.554   4.129 -16.861  1.00  0.00    +0.120 C 
BRANCH  33  34
ATOM     34  N   UNL     1     -10.120   5.478 -16.911  1.00  0.00    -0.297 NA
ATOM     35  C   UNL     1     -11.131   5.660 -17.974  1.00  0.00    +0.100 C 
ATOM     36  C   UNL     1      -9.050   6.492 -17.004  1.00  0.00    +0.100 C 
ATOM     37  C   UNL     1     -10.608   6.412 -19.218  1.00  0.00    +0.099 C 
ATOM     38  C   UNL     1      -9.548   7.847 -17.551  1.00  0.00    +0.099 C 
ATOM     39  N   UNL     1     -10.119   7.771 -18.911  1.00  0.00    -0.304 NA
ATOM     40  C   UNL     1      -9.177   8.227 -19.928  1.00  0.00    +0.105 C 
ENDBRANCH  33  34
ENDBRANCH   4  33
TORSDOF 6
ENDMDL
MODEL 3
REMARK VINA RESULT:   -10.050      3.183      5.273
REMARK INTER + INTRA:         -14.020
REMARK INTER:                 -13.304
REMARK INTRA:                  -0.717
REMARK UNBOUND:                -0.445
REMARK SMILES Cc1ccc(C(=O)Nc2ccc(CN3CCN(C)CC3)c(C(F)(F)F)c2)cc1C#Cc1cnc2cccnn12
REMARK SMILES IDX 9 1 10 2 11 3 12 4 21 5 26 6 8 7 6 8 7 9 5 11 2 12 3 13
REMARK SMILES IDX 28 14 4 15 27 16 29 17 1 18 30 19 31 20 32 21 39 22 33 23
REMARK SMILES IDX 38 24 34 25 37 26 35 27 36 28 22 29 23 30 24 31 25 32 13 33
REMARK SMILES IDX 14 34 15 35 20 36 16 37 19 38 17 39 18 40
REMARK H PARENT 8 10
ROOT
ATOM      1  C   UNL     1     -14.587   0.553  -9.649  1.00  0.00    +0.042 A 
ATOM      2  C   UNL     1     -15.276   1.172  -8.604  1.00  0.00    +0.026 A 
ATOM      3  C   UNL     1     -15.778   0.422  -7.539  1.00  0.00    +0.008 A 
ATOM      4  C   UNL     1     -15.607  -0.972  -7.492  1.00  0.00    -0.022 A 
ATOM      5  C   UNL     1     -14.899  -1.610  -8.536  1.00  0.00    +0.062 A 
ATOM      6  C   UNL     1     -14.410  -0.830  -9.609  1.00  0.00    +0.039 A 
ENDROOT
BRANCH   1   7
ATOM      7  N   UNL     1     -14.122   1.381 -10.693  1.00  0.00    -0.322 N 
ATOM      8  C   UNL     1     -12.858   1.398 -11.254  1.00  0.00    +0.255 C 
ATOM      9  O   UNL     1     -11.887   0.743 -10.895  1.00  0.00    -0.269 OA
ATOM     10  H   UNL     1     -14.775   2.083 -11.016  1.00  0.00    +0.170 HD
BRANCH   8  11
ATOM     11  C   UNL     1     -12.684   2.357 -12.380  1.00  0.00    +0.041 A 
ATOM     12  C   UNL     1     -12.432   4.197 -14.496  1.00  0.00    -0.035 A 
ATOM     13  C   UNL     1     -13.613   4.133 -13.742  1.00  0.00    +0.005 A 
ATOM     14  C   UNL     1     -11.367   3.340 -14.167  1.00  0.00    +0.029 A 
ATOM     15  C   UNL     1     -13.737   3.223 -12.690  1.00  0.00    +0.014 A 
ATOM     16  C   UNL     1     -11.492   2.428 -13.110  1.00  0.00    +0.031 A 
ATOM     17  C   UNL     1     -10.129   3.371 -14.888  1.00  0.00    -0.060 C 
ATOM     18  C   UNL     1     -12.325   5.191 -15.621  1.00  0.00    +0.045 C 
BRANCH  17  19
ATOM     19  C   UNL     1      -9.084   3.383 -15.480  1.00  0.00    -0.040 C 
ATOM     20  C   UNL     1      -7.844   3.390 -16.170  1.00  0.00    +0.135 A 
ATOM     21  C   UNL     1      -7.414   4.252 -17.153  1.00  0.00    +0.151 A 
ATOM     22  N   UNL     1      -6.804   2.510 -15.979  1.00  0.00    -0.205 N 
ATOM     23  N   UNL     1      -6.145   3.939 -17.575  1.00  0.00    -0.234 NA
ATOM     24  N   UNL     1      -6.777   1.463 -15.094  1.00  0.00    -0.174 NA
ATOM     25  C   UNL     1      -5.797   2.893 -16.856  1.00  0.00    +0.154 A 
ATOM     26  C   UNL     1      -5.659   0.810 -15.128  1.00  0.00    +0.134 C 
ATOM     27  C   UNL     1      -4.605   2.134 -16.842  1.00  0.00    +0.051 C 
ATOM     28  C   UNL     1      -4.496   1.097 -16.002  1.00  0.00    +0.026 C 
ENDBRANCH  17  19
ENDBRANCH   8  11
ENDBRANCH   1   7
BRANCH   5  29
ATOM     29  C   UNL     1     -14.668  -3.109  -8.574  1.00  0.00    +0.416 C 
ATOM     30  F   UNL     1     -13.583  -3.491  -7.836  1.00  0.00    -0.166 F 
ATOM     31  F   UNL     1     -15.700  -3.841  -8.061  1.00  0.00    -0.166 F 
ATOM     32  F   UNL     1     -14.432  -3.589  -9.826  1.00  0.00    -0.166 F 
ENDBRANCH   5  29
BRANCH   4  33
ATOM     33  C   UNL     1     -16.187  -1.737  -6.316  1.00  0.00    +0.120 C 
BRANCH  33  34
ATOM     34  N   UNL     1     -17.524  -1.269  -5.949  1.00  0.00    -0.297 NA
ATOM     35  C   UNL     1     -17.839  -1.431  -4.514  1.00  0.00    +0.100 C 
ATOM     36  C   UNL     1     -18.552  -1.901  -6.802  1.00  0.00    +0.100 C 
ATOM     37  C   UNL     1     -18.758  -2.633  -4.203  1.00  0.00    +0.099 C 
ATOM     38  C   UNL     1     -19.964  -1.857  -6.180  1.00  0.00    +0.099 C 
ATOM     39  N   UNL     1     -20.067  -2.553  -4.881  1.00  0.00    -0.304 NA
ATOM     40  C   UNL     1     -20.666  -3.877  -5.013  1.00  0.00    +0.105 C 
ENDBRANCH  33  34
ENDBRANCH   4  33
TORSDOF 6
ENDMDL
MODEL 4
REMARK VINA RESULT:   -10.024      3.578     12.240
REMARK INTER + INTRA:         -13.986
REMARK INTER:                 -13.564
REMARK INTRA:                  -0.422
REMARK UNBOUND:                -0.445
REMARK SMILES Cc1ccc(C(=O)Nc2ccc(CN3CCN(C)CC3)c(C(F)(F)F)c2)cc1C#Cc1cnc2cccnn12
REMARK SMILES IDX 9 1 10 2 11 3 12 4 21 5 26 6 8 7 6 8 7 9 5 11 2 12 3 13
REMARK SMILES IDX 28 14 4 15 27 16 29 17 1 18 30 19 31 20 32 21 39 22 33 23
REMARK SMILES IDX 38 24 34 25 37 26 35 27 36 28 22 29 23 30 24 31 25 32 13 33
REMARK SMILES IDX 14 34 15 35 20 36 16 37 19 38 17 39 18 40
REMARK H PARENT 8 10
ROOT
ATOM      1  C   UNL     1     -11.079   2.430 -13.610  1.00  0.00    +0.042 A 
ATOM      2  C   UNL     1     -11.620   3.652 -14.014  1.00  0.00    +0.026 A 
ATOM      3  C   UNL     1     -11.062   4.360 -15.080  1.00  0.00    +0.008 A 
ATOM      4  C   UNL     1      -9.941   3.866 -15.769  1.00  0.00    -0.022 A 
ATOM      5  C   UNL     1      -9.392   2.624 -15.379  1.00  0.00    +0.062 A 
ATOM      6  C   UNL     1      -9.968   1.930 -14.290  1.00  0.00    +0.039 A 
ENDROOT
BRANCH   1   7
ATOM      7  N   UNL     1     -11.695   1.783 -12.517  1.00  0.00    -0.322 N 
ATOM      8  C   UNL     1     -12.971   1.993 -12.026  1.00  0.00    +0.255 C 
ATOM      9  O   UNL     1     -13.776   2.833 -12.410  1.00  0.00    -0.269 OA
ATOM     10  H   UNL     1     -11.105   1.145 -11.999  1.00  0.00    +0.170 HD
BRANCH   8  11
ATOM     11  C   UNL     1     -13.355   1.118 -10.884  1.00  0.00    +0.041 A 
ATOM     12  C   UNL     1     -14.139  -0.482  -8.704  1.00  0.00    -0.035 A 
ATOM     13  C   UNL     1     -14.826   0.705  -9.003  1.00  0.00    +0.005 A 
ATOM     14  C   UNL     1     -13.064  -0.870  -9.522  1.00  0.00    +0.029 A 
ATOM     15  C   UNL     1     -14.439   1.497 -10.086  1.00  0.00    +0.014 A 
ATOM     16  C   UNL     1     -12.678  -0.075 -10.610  1.00  0.00    +0.031 A 
ATOM     17  C   UNL     1     -12.336  -2.081  -9.279  1.00  0.00    -0.060 C 
ATOM     18  C   UNL     1     -14.581  -1.317  -7.533  1.00  0.00    +0.045 C 
BRANCH  17  19
ATOM     19  C   UNL     1     -11.715  -3.092  -9.091  1.00  0.00    -0.040 C 
ATOM     20  C   UNL     1     -10.994  -4.294  -8.871  1.00  0.00    +0.135 A 
ATOM     21  C   UNL     1      -9.732  -4.452  -8.344  1.00  0.00    +0.151 A 
ATOM     22  N   UNL     1     -11.433  -5.566  -9.149  1.00  0.00    -0.205 N 
ATOM     23  N   UNL     1      -9.377  -5.777  -8.284  1.00  0.00    -0.234 NA
ATOM     24  N   UNL     1     -12.644  -5.907  -9.695  1.00  0.00    -0.174 NA
ATOM     25  C   UNL     1     -10.413  -6.429  -8.769  1.00  0.00    +0.154 A 
ATOM     26  C   UNL     1     -12.786  -7.187  -9.836  1.00  0.00    +0.134 C 
ATOM     27  C   UNL     1     -10.633  -7.813  -8.953  1.00  0.00    +0.051 C 
ATOM     28  C   UNL     1     -11.793  -8.229  -9.476  1.00  0.00    +0.026 C 
ENDBRANCH  17  19
ENDBRANCH   8  11
ENDBRANCH   1   7
BRANCH   5  29
ATOM     29  C   UNL     1      -8.181   2.012 -16.059  1.00  0.00    +0.416 C 
ATOM     30  F   UNL     1      -7.861   0.783 -15.554  1.00  0.00    -0.166 F 
ATOM     31  F   UNL     1      -8.349   1.794 -17.396  1.00  0.00    -0.166 F 
ATOM     32  F   UNL     1      -7.049   2.756 -15.923  1.00  0.00    -0.166 F 
ENDBRANCH   5  29
BRANCH   4  33
ATOM     33  C   UNL     1      -9.368   4.687 -16.910  1.00  0.00    +0.120 C 
BRANCH  33  34
ATOM     34  N   UNL     1     -10.122   5.919 -17.146  1.00  0.00    -0.297 NA
ATOM     35  C   UNL     1     -10.933   5.893 -18.382  1.00  0.00    +0.100 C 
ATOM     36  C   UNL     1      -9.228   7.094 -17.111  1.00  0.00    +0.100 C 
ATOM     37  C   UNL     1     -10.314   6.681 -19.558  1.00  0.00    +0.099 C 
ATOM     38  C   UNL     1      -9.824   8.328 -17.823  1.00  0.00    +0.099 C 
ATOM     39  N   UNL     1     -10.113   8.112 -19.256  1.00  0.00    -0.304 NA
ATOM     40  C   UNL     1      -9.082   8.685 -20.116  1.00  0.00    +0.105 C 
ENDBRANCH  33  34
ENDBRANCH   4  33
TORSDOF 6
ENDMDL
MODEL 5
REMARK VINA RESULT:    -9.998      3.468     12.355
REMARK INTER + INTRA:         -13.951
REMARK INTER:                 -13.491
REMARK INTRA:                  -0.460
REMARK UNBOUND:                -0.445
REMARK SMILES Cc1ccc(C(=O)Nc2ccc(CN3CCN(C)CC3)c(C(F)(F)F)c2)cc1C#Cc1cnc2cccnn12
REMARK SMILES IDX 9 1 10 2 11 3 12 4 21 5 26 6 8 7 6 8 7 9 5 11 2 12 3 13
REMARK SMILES IDX 28 14 4 15 27 16 29 17 1 18 30 19 31 20 32 21 39 22 33 23
REMARK SMILES IDX 38 24 34 25 37 26 35 27 36 28 22 29 23 30 24 31 25 32 13 33
REMARK SMILES IDX 14 34 15 35 20 36 16 37 19 38 17 39 18 40
REMARK H PARENT 8 10
ROOT
ATOM      1  C   UNL     1     -10.603   2.127 -13.288  1.00  0.00    +0.042 A 
ATOM      2  C   UNL     1      -9.514   2.634 -13.999  1.00  0.00    +0.026 A 
ATOM      3  C   UNL     1      -9.673   3.709 -14.876  1.00  0.00    +0.008 A 
ATOM      4  C   UNL     1     -10.930   4.304 -15.070  1.00  0.00    -0.022 A 
ATOM      5  C   UNL     1     -12.040   3.810 -14.346  1.00  0.00    +0.062 A 
ATOM      6  C   UNL     1     -11.856   2.714 -13.472  1.00  0.00    +0.039 A 
ENDROOT
BRANCH   1   7
ATOM      7  N   UNL     1     -10.360   1.033 -12.432  1.00  0.00    -0.322 N 
ATOM      8  C   UNL     1     -10.249  -0.301 -12.782  1.00  0.00    +0.255 C 
ATOM      9  O   UNL     1     -10.415  -0.783 -13.896  1.00  0.00    -0.269 OA
ATOM     10  H   UNL     1     -10.331   1.250 -11.444  1.00  0.00    +0.170 HD
BRANCH   8  11
ATOM     11  C   UNL     1      -9.941  -1.222 -11.654  1.00  0.00    +0.041 A 
ATOM     12  C   UNL     1      -9.279  -2.954  -9.535  1.00  0.00    -0.035 A 
ATOM     13  C   UNL     1      -8.273  -2.335 -10.293  1.00  0.00    +0.005 A 
ATOM     14  C   UNL     1     -10.625  -2.682  -9.839  1.00  0.00    +0.029 A 
ATOM     15  C   UNL     1      -8.601  -1.473 -11.341  1.00  0.00    +0.014 A 
ATOM     16  C   UNL     1     -10.953  -1.815 -10.890  1.00  0.00    +0.031 A 
ATOM     17  C   UNL     1     -11.696  -3.270  -9.089  1.00  0.00    -0.060 C 
ATOM     18  C   UNL     1      -8.896  -3.875  -8.409  1.00  0.00    +0.045 C 
BRANCH  17  19
ATOM     19  C   UNL     1     -12.607  -3.752  -8.472  1.00  0.00    -0.040 C 
ATOM     20  C   UNL     1     -13.680  -4.333  -7.749  1.00  0.00    +0.135 A 
ATOM     21  C   UNL     1     -14.648  -3.705  -6.998  1.00  0.00    +0.151 A 
ATOM     22  N   UNL     1     -13.968  -5.675  -7.663  1.00  0.00    -0.205 N 
ATOM     23  N   UNL     1     -15.524  -4.611  -6.452  1.00  0.00    -0.234 NA
ATOM     24  N   UNL     1     -13.268  -6.697  -8.252  1.00  0.00    -0.174 NA
ATOM     25  C   UNL     1     -15.100  -5.786  -6.866  1.00  0.00    +0.154 A 
ATOM     26  C   UNL     1     -13.778  -7.861  -8.002  1.00  0.00    +0.134 C 
ATOM     27  C   UNL     1     -15.602  -7.087  -6.632  1.00  0.00    +0.051 C 
ATOM     28  C   UNL     1     -14.978  -8.138  -7.176  1.00  0.00    +0.026 C 
ENDBRANCH  17  19
ENDBRANCH   8  11
ENDBRANCH   1   7
BRANCH   5  29
ATOM     29  C   UNL     1     -13.437   4.386 -14.491  1.00  0.00    +0.416 C 
ATOM     30  F   UNL     1     -14.380   3.422 -14.712  1.00  0.00    -0.166 F 
ATOM     31  F   UNL     1     -13.881   5.046 -13.382  1.00  0.00    -0.166 F 
ATOM     32  F   UNL     1     -13.561   5.248 -15.537  1.00  0.00    -0.166 F 
ENDBRANCH   5  29
BRANCH   4  33
ATOM     33  C   UNL     1     -11.046   5.461 -16.047  1.00  0.00    +0.120 C 
BRANCH  33  34
ATOM     34  N   UNL     1      -9.814   5.676 -16.807  1.00  0.00    -0.297 NA
ATOM     35  C   UNL     1      -9.317   7.067 -16.753  1.00  0.00    +0.100 C 
ATOM     36  C   UNL     1      -9.970   5.211 -18.200  1.00  0.00    +0.100 C 
ATOM     37  C   UNL     1      -9.612   7.890 -18.027  1.00  0.00    +0.099 C 
ATOM     38  C   UNL     1      -8.940   5.837 -19.164  1.00  0.00    +0.099 C 
ATOM     39  N   UNL     1      -9.011   7.310 -19.244  1.00  0.00    -0.304 NA
ATOM     40  C   UNL     1      -9.719   7.762 -20.439  1.00  0.00    +0.105 C 
ENDBRANCH  33  34
ENDBRANCH   4  33
TORSDOF 6
ENDMDL
MODEL 6
REMARK VINA RESULT:    -9.935      1.534      2.039
REMARK INTER + INTRA:         -13.865
REMARK INTER:                 -13.195
REMARK INTRA:                  -0.669
REMARK UNBOUND:                -0.445
REMARK SMILES Cc1ccc(C(=O)Nc2ccc(CN3CCN(C)CC3)c(C(F)(F)F)c2)cc1C#Cc1cnc2cccnn12
REMARK SMILES IDX 9 1 10 2 11 3 12 4 21 5 26 6 8 7 6 8 7 9 5 11 2 12 3 13
REMARK SMILES IDX 28 14 4 15 27 16 29 17 1 18 30 19 31 20 32 21 39 22 33 23
REMARK SMILES IDX 38 24 34 25 37 26 35 27 36 28 22 29 23 30 24 31 25 32 13 33
REMARK SMILES IDX 14 34 15 35 20 36 16 37 19 38 17 39 18 40
REMARK H PARENT 8 10
ROOT
ATOM      1  C   UNL     1     -12.419   0.749 -10.539  1.00  0.00    +0.042 A 
ATOM      2  C   UNL     1     -13.813   0.786 -10.612  1.00  0.00    +0.026 A 
ATOM      3  C   UNL     1     -14.594   0.444  -9.506  1.00  0.00    +0.008 A 
ATOM      4  C   UNL     1     -14.000   0.051  -8.295  1.00  0.00    -0.022 A 
ATOM      5  C   UNL     1     -12.589   0.022  -8.203  1.00  0.00    +0.062 A 
ATOM      6  C   UNL     1     -11.821   0.361  -9.339  1.00  0.00    +0.039 A 
ENDROOT
BRANCH   1   7
ATOM      7  N   UNL     1     -11.704   1.097 -11.704  1.00  0.00    -0.322 N 
ATOM      8  C   UNL     1     -11.990   2.118 -12.592  1.00  0.00    +0.255 C 
ATOM      9  O   UNL     1     -12.962   2.864 -12.567  1.00  0.00    -0.269 OA
ATOM     10  H   UNL     1     -10.936   0.484 -11.945  1.00  0.00    +0.170 HD
BRANCH   8  11
ATOM     11  C   UNL     1     -11.017   2.268 -13.710  1.00  0.00    +0.041 A 
ATOM     12  C   UNL     1      -9.154   2.475 -15.810  1.00  0.00    -0.035 A 
ATOM     13  C   UNL     1      -9.302   1.272 -15.102  1.00  0.00    +0.005 A 
ATOM     14  C   UNL     1      -9.963   3.572 -15.466  1.00  0.00    +0.029 A 
ATOM     15  C   UNL     1     -10.229   1.168 -14.063  1.00  0.00    +0.014 A 
ATOM     16  C   UNL     1     -10.894   3.466 -14.424  1.00  0.00    +0.031 A 
ATOM     17  C   UNL     1      -9.871   4.820 -16.164  1.00  0.00    -0.060 C 
ATOM     18  C   UNL     1      -8.149   2.556 -16.928  1.00  0.00    +0.045 C 
BRANCH  17  19
ATOM     19  C   UNL     1      -9.808   5.873 -16.738  1.00  0.00    -0.040 C 
ATOM     20  C   UNL     1      -9.732   7.110 -17.429  1.00  0.00    +0.135 A 
ATOM     21  C   UNL     1      -9.588   8.376 -16.907  1.00  0.00    +0.151 A 
ATOM     22  N   UNL     1      -9.787   7.284 -18.792  1.00  0.00    -0.205 N 
ATOM     23  N   UNL     1      -9.549   9.326 -17.898  1.00  0.00    -0.234 NA
ATOM     24  N   UNL     1      -9.932   6.297 -19.732  1.00  0.00    -0.174 NA
ATOM     25  C   UNL     1      -9.667   8.649 -19.021  1.00  0.00    +0.154 A 
ATOM     26  C   UNL     1      -9.943   6.758 -20.943  1.00  0.00    +0.134 C 
ATOM     27  C   UNL     1      -9.689   9.083 -20.366  1.00  0.00    +0.051 C 
ATOM     28  C   UNL     1      -9.823   8.180 -21.345  1.00  0.00    +0.026 C 
ENDBRANCH  17  19
ENDBRANCH   8  11
ENDBRANCH   1   7
BRANCH   5  29
ATOM     29  C   UNL     1     -11.858  -0.393  -6.939  1.00  0.00    +0.416 C 
ATOM     30  F   UNL     1     -12.117  -1.688  -6.585  1.00  0.00    -0.166 F 
ATOM     31  F   UNL     1     -10.498  -0.338  -7.044  1.00  0.00    -0.166 F 
ATOM     32  F   UNL     1     -12.198   0.347  -5.849  1.00  0.00    -0.166 F 
ENDBRANCH   5  29
BRANCH   4  33
ATOM     33  C   UNL     1     -14.899  -0.324  -7.131  1.00  0.00    +0.120 C 
BRANCH  33  34
ATOM     34  N   UNL     1     -15.750  -1.476  -7.429  1.00  0.00    -0.297 NA
ATOM     35  C   UNL     1     -17.183  -1.247  -7.150  1.00  0.00    +0.100 C 
ATOM     36  C   UNL     1     -15.253  -2.686  -6.742  1.00  0.00    +0.100 C 
ATOM     37  C   UNL     1     -17.681  -1.896  -5.840  1.00  0.00    +0.099 C 
ATOM     38  C   UNL     1     -16.329  -3.783  -6.597  1.00  0.00    +0.099 C 
ATOM     39  N   UNL     1     -17.512  -3.362  -5.819  1.00  0.00    -0.304 NA
ATOM     40  C   UNL     1     -17.473  -3.862  -4.448  1.00  0.00    +0.105 C 
ENDBRANCH  33  34
ENDBRANCH   4  33
TORSDOF 6
ENDMDL
MODEL 7
REMARK VINA RESULT:    -9.918      3.289      5.428
REMARK INTER + INTRA:         -13.842
REMARK INTER:                 -13.117
REMARK INTRA:                  -0.725
REMARK UNBOUND:                -0.445
REMARK SMILES Cc1ccc(C(=O)Nc2ccc(CN3CCN(C)CC3)c(C(F)(F)F)c2)cc1C#Cc1cnc2cccnn12
REMARK SMILES IDX 9 1 10 2 11 3 12 4 21 5 26 6 8 7 6 8 7 9 5 11 2 12 3 13
REMARK SMILES IDX 28 14 4 15 27 16 29 17 1 18 30 19 31 20 32 21 39 22 33 23
REMARK SMILES IDX 38 24 34 25 37 26 35 27 36 28 22 29 23 30 24 31 25 32 13 33
REMARK SMILES IDX 14 34 15 35 20 36 16 37 19 38 17 39 18 40
REMARK H PARENT 8 10
ROOT
ATOM      1  C   UNL     1     -12.303   0.394 -10.713  1.00  0.00    +0.042 A 
ATOM      2  C   UNL     1     -11.602  -0.795 -10.502  1.00  0.00    +0.026 A 
ATOM      3  C   UNL     1     -11.950  -1.651  -9.456  1.00  0.00    +0.008 A 
ATOM      4  C   UNL     1     -13.008  -1.338  -8.586  1.00  0.00    -0.022 A 
ATOM      5  C   UNL     1     -13.735  -0.144  -8.796  1.00  0.00    +0.062 A 
ATOM      6  C   UNL     1     -13.357   0.712  -9.856  1.00  0.00    +0.039 A 
ENDROOT
BRANCH   1   7
ATOM      7  N   UNL     1     -11.881   1.209 -11.785  1.00  0.00    -0.322 N 
ATOM      8  C   UNL     1     -12.582   2.240 -12.384  1.00  0.00    +0.255 C 
ATOM      9  O   UNL     1     -13.731   2.586 -12.139  1.00  0.00    -0.269 OA
ATOM     10  H   UNL     1     -10.991   0.960 -12.197  1.00  0.00    +0.170 HD
BRANCH   8  11
ATOM     11  C   UNL     1     -11.847   2.950 -13.468  1.00  0.00    +0.041 A 
ATOM     12  C   UNL     1     -10.519   4.348 -15.518  1.00  0.00    -0.035 A 
ATOM     13  C   UNL     1     -11.730   4.827 -14.996  1.00  0.00    +0.005 A 
ATOM     14  C   UNL     1      -9.968   3.168 -14.989  1.00  0.00    +0.029 A 
ATOM     15  C   UNL     1     -12.387   4.136 -13.976  1.00  0.00    +0.014 A 
ATOM     16  C   UNL     1     -10.628   2.475 -13.965  1.00  0.00    +0.031 A 
ATOM     17  C   UNL     1      -8.725   2.639 -15.469  1.00  0.00    -0.060 C 
ATOM     18  C   UNL     1      -9.831   5.117 -16.614  1.00  0.00    +0.045 C 
BRANCH  17  19
ATOM     19  C   UNL     1      -7.685   2.183 -15.858  1.00  0.00    -0.040 C 
ATOM     20  C   UNL     1      -6.458   1.631 -16.309  1.00  0.00    +0.135 A 
ATOM     21  C   UNL     1      -5.392   2.276 -16.894  1.00  0.00    +0.151 A 
ATOM     22  N   UNL     1      -6.090   0.308 -16.244  1.00  0.00    -0.205 N 
ATOM     23  N   UNL     1      -4.377   1.400 -17.191  1.00  0.00    -0.234 NA
ATOM     24  N   UNL     1      -6.841  -0.721 -15.737  1.00  0.00    -0.174 NA
ATOM     25  C   UNL     1      -4.815   0.225 -16.789  1.00  0.00    +0.154 A 
ATOM     26  C   UNL     1      -6.232  -1.862 -15.799  1.00  0.00    +0.134 C 
ATOM     27  C   UNL     1      -4.210  -1.052 -16.828  1.00  0.00    +0.051 C 
ATOM     28  C   UNL     1      -4.876  -2.109 -16.348  1.00  0.00    +0.026 C 
ENDBRANCH  17  19
ENDBRANCH   8  11
ENDBRANCH   1   7
BRANCH   5  29
ATOM     29  C   UNL     1     -14.890   0.280  -7.908  1.00  0.00    +0.416 C 
ATOM     30  F   UNL     1     -15.399   1.500  -8.257  1.00  0.00    -0.166 F 
ATOM     31  F   UNL     1     -15.964  -0.561  -7.958  1.00  0.00    -0.166 F 
ATOM     32  F   UNL     1     -14.548   0.402  -6.596  1.00  0.00    -0.166 F 
ENDBRANCH   5  29
BRANCH   4  33
ATOM     33  C   UNL     1     -13.331  -2.300  -7.457  1.00  0.00    +0.120 C 
BRANCH  33  34
ATOM     34  N   UNL     1     -13.980  -3.522  -7.932  1.00  0.00    -0.297 NA
ATOM     35  C   UNL     1     -15.305  -3.768  -7.324  1.00  0.00    +0.100 C 
ATOM     36  C   UNL     1     -13.087  -4.687  -7.769  1.00  0.00    +0.100 C 
ATOM     37  C   UNL     1     -15.299  -4.843  -6.214  1.00  0.00    +0.099 C 
ATOM     38  C   UNL     1     -13.842  -6.033  -7.771  1.00  0.00    +0.099 C 
ATOM     39  N   UNL     1     -14.838  -6.163  -6.687  1.00  0.00    -0.304 NA
ATOM     40  C   UNL     1     -14.339  -6.968  -5.577  1.00  0.00    +0.105 C 
ENDBRANCH  33  34
ENDBRANCH   4  33
TORSDOF 6
ENDMDL
MODEL 8
REMARK VINA RESULT:    -9.849      3.119      5.378
REMARK INTER + INTRA:         -13.749
REMARK INTER:                 -13.278
REMARK INTRA:                  -0.471
REMARK UNBOUND:                -0.445
REMARK SMILES Cc1ccc(C(=O)Nc2ccc(CN3CCN(C)CC3)c(C(F)(F)F)c2)cc1C#Cc1cnc2cccnn12
REMARK SMILES IDX 9 1 10 2 11 3 12 4 21 5 26 6 8 7 6 8 7 9 5 11 2 12 3 13
REMARK SMILES IDX 28 14 4 15 27 16 29 17 1 18 30 19 31 20 32 21 39 22 33 23
REMARK SMILES IDX 38 24 34 25 37 26 35 27 36 28 22 29 23 30 24 31 25 32 13 33
REMARK SMILES IDX 14 34 15 35 20 36 16 37 19 38 17 39 18 40
REMARK H PARENT 8 10
ROOT
ATOM      1  C   UNL     1     -12.518   1.069 -10.824  1.00  0.00    +0.042 A 
ATOM      2  C   UNL     1     -13.896   1.131 -10.608  1.00  0.00    +0.026 A 
ATOM      3  C   UNL     1     -14.475   0.496  -9.507  1.00  0.00    +0.008 A 
ATOM      4  C   UNL     1     -13.689  -0.224  -8.592  1.00  0.00    -0.022 A 
ATOM      5  C   UNL     1     -12.290  -0.283  -8.790  1.00  0.00    +0.062 A 
ATOM      6  C   UNL     1     -11.729   0.358  -9.918  1.00  0.00    +0.039 A 
ENDROOT
BRANCH   1   7
ATOM      7  N   UNL     1     -12.015   1.727 -11.966  1.00  0.00    -0.322 N 
ATOM      8  C   UNL     1     -12.658   2.675 -12.741  1.00  0.00    +0.255 C 
ATOM      9  O   UNL     1     -13.813   3.064 -12.618  1.00  0.00    -0.269 OA
ATOM     10  H   UNL     1     -11.107   1.415 -12.284  1.00  0.00    +0.170 HD
BRANCH   8  11
ATOM     11  C   UNL     1     -11.844   3.225 -13.862  1.00  0.00    +0.041 A 
ATOM     12  C   UNL     1     -10.357   4.328 -15.982  1.00  0.00    -0.035 A 
ATOM     13  C   UNL     1     -11.461   5.013 -15.452  1.00  0.00    +0.005 A 
ATOM     14  C   UNL     1      -9.992   3.089 -15.425  1.00  0.00    +0.029 A 
ATOM     15  C   UNL     1     -12.197   4.467 -14.397  1.00  0.00    +0.014 A 
ATOM     16  C   UNL     1     -10.731   2.544 -14.366  1.00  0.00    +0.031 A 
ATOM     17  C   UNL     1      -8.864   2.351 -15.912  1.00  0.00    -0.060 C 
ATOM     18  C   UNL     1      -9.580   4.942 -17.115  1.00  0.00    +0.045 C 
BRANCH  17  19
ATOM     19  C   UNL     1      -7.921   1.720 -16.305  1.00  0.00    -0.040 C 
ATOM     20  C   UNL     1      -6.808   0.966 -16.758  1.00  0.00    +0.135 A 
ATOM     21  C   UNL     1      -5.925   1.266 -17.771  1.00  0.00    +0.151 A 
ATOM     22  N   UNL     1      -6.385  -0.241 -16.254  1.00  0.00    -0.205 N 
ATOM     23  N   UNL     1      -4.970   0.287 -17.909  1.00  0.00    -0.234 NA
ATOM     24  N   UNL     1      -6.965  -0.941 -15.226  1.00  0.00    -0.174 NA
ATOM     25  C   UNL     1      -5.264  -0.606 -16.987  1.00  0.00    +0.154 A 
ATOM     26  C   UNL     1      -6.344  -2.046 -14.962  1.00  0.00    +0.134 C 
ATOM     27  C   UNL     1      -4.636  -1.825 -16.647  1.00  0.00    +0.051 C 
ATOM     28  C   UNL     1      -5.138  -2.566 -15.651  1.00  0.00    +0.026 C 
ENDBRANCH  17  19
ENDBRANCH   8  11
ENDBRANCH   1   7
BRANCH   5  29
ATOM     29  C   UNL     1     -11.361  -1.039  -7.858  1.00  0.00    +0.416 C 
ATOM     30  F   UNL     1     -11.561  -0.718  -6.545  1.00  0.00    -0.166 F 
ATOM     31  F   UNL     1     -11.515  -2.394  -7.903  1.00  0.00    -0.166 F 
ATOM     32  F   UNL     1     -10.042  -0.787  -8.087  1.00  0.00    -0.166 F 
ENDBRANCH   5  29
BRANCH   4  33
ATOM     33  C   UNL     1     -14.374  -0.906  -7.422  1.00  0.00    +0.120 C 
BRANCH  33  34
ATOM     34  N   UNL     1     -14.889  -2.230  -7.770  1.00  0.00    -0.297 NA
ATOM     35  C   UNL     1     -16.359  -2.280  -7.913  1.00  0.00    +0.100 C 
ATOM     36  C   UNL     1     -14.405  -3.248  -6.815  1.00  0.00    +0.100 C 
ATOM     37  C   UNL     1     -17.089  -2.904  -6.703  1.00  0.00    +0.099 C 
ATOM     38  C   UNL     1     -15.268  -4.527  -6.806  1.00  0.00    +0.099 C 
ATOM     39  N   UNL     1     -16.678  -4.296  -6.433  1.00  0.00    -0.304 NA
ATOM     40  C   UNL     1     -16.946  -4.658  -5.045  1.00  0.00    +0.105 C 
ENDBRANCH  33  34
ENDBRANCH   4  33
TORSDOF 6
ENDMDL
MODEL 9
REMARK VINA RESULT:    -9.678      1.843      2.460
REMARK INTER + INTRA:         -13.519
REMARK INTER:                 -12.662
REMARK INTRA:                  -0.857
REMARK UNBOUND:                -0.445
REMARK SMILES Cc1ccc(C(=O)Nc2ccc(CN3CCN(C)CC3)c(C(F)(F)F)c2)cc1C#Cc1cnc2cccnn12
REMARK SMILES IDX 9 1 10 2 11 3 12 4 21 5 26 6 8 7 6 8 7 9 5 11 2 12 3 13
REMARK SMILES IDX 28 14 4 15 27 16 29 17 1 18 30 19 31 20 32 21 39 22 33 23
REMARK SMILES IDX 38 24 34 25 37 26 35 27 36 28 22 29 23 30 24 31 25 32 13 33
REMARK SMILES IDX 14 34 15 35 20 36 16 37 19 38 17 39 18 40
REMARK H PARENT 8 10
ROOT
ATOM      1  C   UNL     1     -11.351  -0.656 -11.076  1.00  0.00    +0.042 A 
ATOM      2  C   UNL     1     -11.627   0.230 -10.033  1.00  0.00    +0.026 A 
ATOM      3  C   UNL     1     -12.246  -0.216  -8.864  1.00  0.00    +0.008 A 
ATOM      4  C   UNL     1     -12.610  -1.563  -8.707  1.00  0.00    -0.022 A 
ATOM      5  C   UNL     1     -12.324  -2.475  -9.749  1.00  0.00    +0.062 A 
ATOM      6  C   UNL     1     -11.707  -1.997 -10.928  1.00  0.00    +0.039 A 
ENDROOT
BRANCH   1   7
ATOM      7  N   UNL     1     -10.734  -0.123 -12.228  1.00  0.00    -0.322 N 
ATOM      8  C   UNL     1     -11.139   0.975 -12.966  1.00  0.00    +0.255 C 
ATOM      9  O   UNL     1     -12.151   1.643 -12.794  1.00  0.00    -0.269 OA
ATOM     10  H   UNL     1      -9.948  -0.649 -12.585  1.00  0.00    +0.170 HD
BRANCH   8  11
ATOM     11  C   UNL     1     -10.250   1.324 -14.109  1.00  0.00    +0.041 A 
ATOM     12  C   UNL     1      -8.541   1.907 -16.269  1.00  0.00    -0.035 A 
ATOM     13  C   UNL     1      -8.563   0.623 -15.702  1.00  0.00    +0.005 A 
ATOM     14  C   UNL     1      -9.399   2.894 -15.753  1.00  0.00    +0.029 A 
ATOM     15  C   UNL     1      -9.414   0.333 -14.633  1.00  0.00    +0.014 A 
ATOM     16  C   UNL     1     -10.254   2.601 -14.681  1.00  0.00    +0.031 A 
ATOM     17  C   UNL     1      -9.435   4.218 -16.302  1.00  0.00    -0.060 C 
ATOM     18  C   UNL     1      -7.617   2.190 -17.422  1.00  0.00    +0.045 C 
BRANCH  17  19
ATOM     19  C   UNL     1      -9.480   5.331 -16.750  1.00  0.00    -0.040 C 
ATOM     20  C   UNL     1      -9.530   6.642 -17.291  1.00  0.00    +0.135 A 
ATOM     21  C   UNL     1      -9.524   7.846 -16.624  1.00  0.00    +0.151 A 
ATOM     22  N   UNL     1      -9.592   6.967 -18.626  1.00  0.00    -0.205 N 
ATOM     23  N   UNL     1      -9.579   8.904 -17.499  1.00  0.00    -0.234 NA
ATOM     24  N   UNL     1      -9.624   6.086 -19.677  1.00  0.00    -0.174 NA
ATOM     25  C   UNL     1      -9.616   8.354 -18.695  1.00  0.00    +0.154 A 
ATOM     26  C   UNL     1      -9.674   6.681 -20.826  1.00  0.00    +0.134 C 
ATOM     27  C   UNL     1      -9.673   8.937 -19.981  1.00  0.00    +0.051 C 
ATOM     28  C   UNL     1      -9.702   8.146 -21.060  1.00  0.00    +0.026 C 
ENDBRANCH  17  19
ENDBRANCH   8  11
ENDBRANCH   1   7
BRANCH   5  29
ATOM     29  C   UNL     1     -12.683  -3.948  -9.673  1.00  0.00    +0.416 C 
ATOM     30  F   UNL     1     -14.021  -4.152  -9.482  1.00  0.00    -0.166 F 
ATOM     31  F   UNL     1     -12.394  -4.646 -10.810  1.00  0.00    -0.166 F 
ATOM     32  F   UNL     1     -12.075  -4.601  -8.646  1.00  0.00    -0.166 F 
ENDBRANCH   5  29
BRANCH   4  33
ATOM     33  C   UNL     1     -13.294  -1.988  -7.420  1.00  0.00    +0.120 C 
BRANCH  33  34
ATOM     34  N   UNL     1     -14.515  -1.226  -7.158  1.00  0.00    -0.297 NA
ATOM     35  C   UNL     1     -14.774  -0.992  -5.721  1.00  0.00    +0.100 C 
ATOM     36  C   UNL     1     -15.676  -1.854  -7.820  1.00  0.00    +0.100 C 
ATOM     37  C   UNL     1     -15.859  -1.913  -5.119  1.00  0.00    +0.099 C 
ATOM     38  C   UNL     1     -17.026  -1.425  -7.207  1.00  0.00    +0.099 C 
ATOM     39  N   UNL     1     -17.172  -1.770  -5.778  1.00  0.00    -0.304 NA
ATOM     40  C   UNL     1     -17.985  -2.966  -5.582  1.00  0.00    +0.105 C 
ENDBRANCH  33  34
ENDBRANCH   4  33
TORSDOF 6
ENDMDL
MODEL 10
REMARK VINA RESULT:    -9.634      3.497      5.567
REMARK INTER + INTRA:         -13.458
REMARK INTER:                 -12.516
REMARK INTRA:                  -0.942
REMARK UNBOUND:                -0.445
REMARK SMILES Cc1ccc(C(=O)Nc2ccc(CN3CCN(C)CC3)c(C(F)(F)F)c2)cc1C#Cc1cnc2cccnn12
REMARK SMILES IDX 9 1 10 2 11 3 12 4 21 5 26 6 8 7 6 8 7 9 5 11 2 12 3 13
REMARK SMILES IDX 28 14 4 15 27 16 29 17 1 18 30 19 31 20 32 21 39 22 33 23
REMARK SMILES IDX 38 24 34 25 37 26 35 27 36 28 22 29 23 30 24 31 25 32 13 33
REMARK SMILES IDX 14 34 15 35 20 36 16 37 19 38 17 39 18 40
REMARK H PARENT 8 10
ROOT
ATOM      1  C   UNL     1     -12.095   0.156 -10.376  1.00  0.00    +0.042 A 
ATOM      2  C   UNL     1     -11.941   0.694  -9.097  1.00  0.00    +0.026 A 
ATOM      3  C   UNL     1     -12.300  -0.041  -7.967  1.00  0.00    +0.008 A 
ATOM      4  C   UNL     1     -12.831  -1.336  -8.085  1.00  0.00    -0.022 A 
ATOM      5  C   UNL     1     -12.980  -1.899  -9.373  1.00  0.00    +0.062 A 
ATOM      6  C   UNL     1     -12.620  -1.131 -10.503  1.00  0.00    +0.039 A 
ENDROOT
BRANCH   1   7
ATOM      7  N   UNL     1     -11.719   0.969 -11.467  1.00  0.00    -0.322 N 
ATOM      8  C   UNL     1     -12.476   1.945 -12.089  1.00  0.00    +0.255 C 
ATOM      9  O   UNL     1     -13.643   2.232 -11.850  1.00  0.00    -0.269 OA
ATOM     10  H   UNL     1     -10.817   0.761 -11.875  1.00  0.00    +0.170 HD
BRANCH   8  11
ATOM     11  C   UNL     1     -11.783   2.671 -13.189  1.00  0.00    +0.041 A 
ATOM     12  C   UNL     1     -10.533   4.095 -15.271  1.00  0.00    -0.035 A 
ATOM     13  C   UNL     1     -11.757   4.532 -14.741  1.00  0.00    +0.005 A 
ATOM     14  C   UNL     1      -9.930   2.944 -14.734  1.00  0.00    +0.029 A 
ATOM     15  C   UNL     1     -12.375   3.827 -13.705  1.00  0.00    +0.014 A 
ATOM     16  C   UNL     1     -10.551   2.239 -13.693  1.00  0.00    +0.031 A 
ATOM     17  C   UNL     1      -8.672   2.460 -15.221  1.00  0.00    -0.060 C 
ATOM     18  C   UNL     1      -9.888   4.877 -16.383  1.00  0.00    +0.045 C 
BRANCH  17  19
ATOM     19  C   UNL     1      -7.618   2.040 -15.615  1.00  0.00    -0.040 C 
ATOM     20  C   UNL     1      -6.376   1.532 -16.076  1.00  0.00    +0.135 A 
ATOM     21  C   UNL     1      -5.289   2.228 -16.553  1.00  0.00    +0.151 A 
ATOM     22  N   UNL     1      -6.011   0.207 -16.130  1.00  0.00    -0.205 N 
ATOM     23  N   UNL     1      -4.264   1.381 -16.900  1.00  0.00    -0.234 NA
ATOM     24  N   UNL     1      -6.781  -0.865 -15.757  1.00  0.00    -0.174 NA
ATOM     25  C   UNL     1      -4.717   0.174 -16.634  1.00  0.00    +0.154 A 
ATOM     26  C   UNL     1      -6.171  -1.996 -15.911  1.00  0.00    +0.134 C 
ATOM     27  C   UNL     1      -4.112  -1.095 -16.780  1.00  0.00    +0.051 C 
ATOM     28  C   UNL     1      -4.796  -2.192 -16.433  1.00  0.00    +0.026 C 
ENDBRANCH  17  19
ENDBRANCH   8  11
ENDBRANCH   1   7
BRANCH   5  29
ATOM     29  C   UNL     1     -13.548  -3.288  -9.601  1.00  0.00    +0.416 C 
ATOM     30  F   UNL     1     -14.887  -3.358  -9.336  1.00  0.00    -0.166 F 
ATOM     31  F   UNL     1     -13.435  -3.727 -10.888  1.00  0.00    -0.166 F 
ATOM     32  F   UNL     1     -12.980  -4.241  -8.811  1.00  0.00    -0.166 F 
ENDBRANCH   5  29
BRANCH   4  33
ATOM     33  C   UNL     1     -13.218  -2.083  -6.820  1.00  0.00    +0.120 C 
BRANCH  33  34
ATOM     34  N   UNL     1     -14.250  -1.385  -6.053  1.00  0.00    -0.297 NA
ATOM     35  C   UNL     1     -14.618  -2.066  -4.794  1.00  0.00    +0.100 C 
ATOM     36  C   UNL     1     -15.437  -1.120  -6.891  1.00  0.00    +0.100 C 
ATOM     37  C   UNL     1     -15.952  -2.841  -4.864  1.00  0.00    +0.099 C 
ATOM     38  C   UNL     1     -16.713  -0.855  -6.064  1.00  0.00    +0.099 C 
ATOM     39  N   UNL     1     -17.106  -1.981  -5.192  1.00  0.00    -0.304 NA
ATOM     40  C   UNL     1     -18.194  -2.767  -5.766  1.00  0.00    +0.105 C 
ENDBRANCH  33  34
ENDBRANCH   4  33
TORSDOF 6
ENDMDL
