MODEL 1
REMARK VINA RESULT:    -8.868      0.000      0.000
REMARK INTER + INTRA:         -13.017
REMARK INTER:                 -11.978
REMARK INTRA:                  -1.039
REMARK UNBOUND:                -1.039
REMARK SMILES CNC(=O)c1cc(Oc2ccc(NC(=O)Nc3ccc(Cl)c(C(F)(F)F)c3)cc2)ccn1
REMARK SMILES IDX 9 1 10 2 11 3 12 4 28 5 29 6 8 7 7 8 5 9 6 10 32 11 31 12
REMARK SMILES IDX 30 13 3 14 2 15 4 16 1 17 13 19 14 20 15 21 16 22 17 25
REMARK SMILES IDX 18 26 27 27 19 28 22 29 20 30 21 31 23 32 24 33 25 34 26 35
REMARK H PARENT 2 18 13 23 16 24
ROOT
ATOM      1  C   UNL     1     -13.627  -0.926  -9.789  1.00  0.00    +0.127 A 
ATOM      2  C   UNL     1     -14.060   0.340 -10.171  1.00  0.00    +0.049 A 
ATOM      3  C   UNL     1     -13.199   1.196 -10.867  1.00  0.00    +0.030 A 
ATOM      4  C   UNL     1     -11.907   0.782 -11.204  1.00  0.00    +0.043 A 
ATOM      5  C   UNL     1     -11.490  -0.504 -10.830  1.00  0.00    +0.030 A 
ATOM      6  C   UNL     1     -12.347  -1.359 -10.133  1.00  0.00    +0.049 A 
ENDROOT
BRANCH   1   7
ATOM      7  O   UNL     1     -14.526  -1.735  -9.134  1.00  0.00    -0.457 OA
BRANCH   7   8
ATOM      8  C   UNL     1     -14.777  -1.443  -7.812  1.00  0.00    +0.131 A 
ATOM      9  C   UNL     1     -16.307  -0.683  -6.169  1.00  0.00    +0.131 A 
ATOM     10  C   UNL     1     -16.056  -1.011  -7.491  1.00  0.00    +0.081 A 
ATOM     11  N   UNL     1     -15.374  -0.749  -5.175  1.00  0.00    -0.251 NA
ATOM     12  C   UNL     1     -14.137  -1.149  -5.537  1.00  0.00    +0.116 A 
ATOM     13  C   UNL     1     -13.789  -1.500  -6.830  1.00  0.00    +0.067 A 
BRANCH   9  14
ATOM     14  C   UNL     1     -17.678  -0.230  -5.762  1.00  0.00    +0.269 C 
ATOM     15  N   UNL     1     -18.687  -0.664  -6.595  1.00  0.00    -0.354 N 
ATOM     16  O   UNL     1     -17.854   0.475  -4.776  1.00  0.00    -0.268 OA
ATOM     17  C   UNL     1     -20.050  -0.237  -6.445  1.00  0.00    +0.143 C 
ATOM     18  H   UNL     1     -18.391  -1.159  -7.434  1.00  0.00    +0.163 HD
ENDBRANCH   9  14
ENDBRANCH   7   8
ENDBRANCH   1   7
BRANCH   4  19
ATOM     19  N   UNL     1     -10.976   1.584 -11.897  1.00  0.00    -0.308 N 
ATOM     20  C   UNL     1     -10.981   1.913 -13.246  1.00  0.00    +0.323 C 
ATOM     21  O   UNL     1     -11.774   1.483 -14.073  1.00  0.00    -0.248 OA
ATOM     22  N   UNL     1      -9.956   2.808 -13.523  1.00  0.00    -0.308 N 
ATOM     23  H   UNL     1     -10.147   1.834 -11.383  1.00  0.00    +0.171 HD
ATOM     24  H   UNL     1      -9.540   3.259 -12.723  1.00  0.00    +0.171 HD
BRANCH  22  25
ATOM     25  C   UNL     1      -9.565   3.298 -14.786  1.00  0.00    +0.043 A 
ATOM     26  C   UNL     1      -8.433   2.868 -15.475  1.00  0.00    +0.028 A 
ATOM     27  C   UNL     1     -10.365   4.293 -15.364  1.00  0.00    +0.040 A 
ATOM     28  C   UNL     1      -8.112   3.414 -16.721  1.00  0.00    +0.023 A 
ATOM     29  C   UNL     1     -10.056   4.855 -16.622  1.00  0.00    +0.076 A 
ATOM     30  C   UNL     1      -8.918   4.400 -17.294  1.00  0.00    +0.053 A 
ATOM     31 Cl   UNL     1      -8.452   5.020 -18.835  1.00  0.00    -0.084 Cl
BRANCH  29  32
ATOM     32  C   UNL     1     -10.943   5.918 -17.208  1.00  0.00    +0.417 C 
ATOM     33  F   UNL     1     -10.315   7.115 -17.363  1.00  0.00    -0.166 F 
ATOM     34  F   UNL     1     -11.450   5.583 -18.426  1.00  0.00    -0.166 F 
ATOM     35  F   UNL     1     -12.033   6.184 -16.428  1.00  0.00    -0.166 F 
ENDBRANCH  29  32
ENDBRANCH  22  25
ENDBRANCH   4  19
TORSDOF 6
ENDMDL
MODEL 2
REMARK VINA RESULT:    -8.638      6.802      8.167
REMARK INTER + INTRA:         -12.706
REMARK INTER:                 -11.679
REMARK INTRA:                  -1.027
REMARK UNBOUND:                -1.039
REMARK SMILES CNC(=O)c1cc(Oc2ccc(NC(=O)Nc3ccc(Cl)c(C(F)(F)F)c3)cc2)ccn1
REMARK SMILES IDX 9 1 10 2 11 3 12 4 28 5 29 6 8 7 7 8 5 9 6 10 32 11 31 12
REMARK SMILES IDX 30 13 3 14 2 15 4 16 1 17 13 19 14 20 15 21 16 22 17 25
REMARK SMILES IDX 18 26 27 27 19 28 22 29 20 30 21 31 23 32 24 33 25 34 26 35
REMARK H PARENT 2 18 13 23 16 24
ROOT
ATOM      1  C   UNL     1      -7.925  -0.365 -14.409  1.00  0.00    +0.127 A 
ATOM      2  C   UNL     1      -7.846  -0.245 -15.794  1.00  0.00    +0.049 A 
ATOM      3  C   UNL     1      -8.433   0.849 -16.438  1.00  0.00    +0.030 A 
ATOM      4  C   UNL     1      -9.083   1.842 -15.700  1.00  0.00    +0.043 A 
ATOM      5  C   UNL     1      -9.139   1.720 -14.303  1.00  0.00    +0.030 A 
ATOM      6  C   UNL     1      -8.556   0.626 -13.658  1.00  0.00    +0.049 A 
ENDROOT
BRANCH   1   7
ATOM      7  O   UNL     1      -7.304  -1.445 -13.828  1.00  0.00    -0.457 OA
BRANCH   7   8
ATOM      8  C   UNL     1      -6.266  -1.175 -12.965  1.00  0.00    +0.131 A 
ATOM      9  C   UNL     1      -5.480  -1.050 -10.732  1.00  0.00    +0.131 A 
ATOM     10  C   UNL     1      -6.508  -1.352 -11.609  1.00  0.00    +0.081 A 
ATOM     11  N   UNL     1      -4.257  -0.584 -11.119  1.00  0.00    -0.251 NA
ATOM     12  C   UNL     1      -4.074  -0.403 -12.444  1.00  0.00    +0.116 A 
ATOM     13  C   UNL     1      -5.039  -0.677 -13.398  1.00  0.00    +0.067 A 
BRANCH   9  14
ATOM     14  C   UNL     1      -5.680  -1.242  -9.258  1.00  0.00    +0.269 C 
ATOM     15  N   UNL     1      -6.693  -0.477  -8.721  1.00  0.00    -0.354 N 
ATOM     16  O   UNL     1      -4.978  -2.009  -8.610  1.00  0.00    -0.268 OA
ATOM     17  C   UNL     1      -6.959  -0.428  -7.310  1.00  0.00    +0.143 C 
ATOM     18  H   UNL     1      -7.129   0.192  -9.351  1.00  0.00    +0.163 HD
ENDBRANCH   9  14
ENDBRANCH   7   8
ENDBRANCH   1   7
BRANCH   4  19
ATOM     19  N   UNL     1      -9.705   2.972 -16.271  1.00  0.00    -0.308 N 
ATOM     20  C   UNL     1      -9.093   4.052 -16.894  1.00  0.00    +0.323 C 
ATOM     21  O   UNL     1      -7.885   4.224 -16.976  1.00  0.00    -0.248 OA
ATOM     22  N   UNL     1     -10.053   4.908 -17.418  1.00  0.00    -0.308 N 
ATOM     23  H   UNL     1     -10.692   3.067 -16.089  1.00  0.00    +0.171 HD
ATOM     24  H   UNL     1     -10.984   4.529 -17.492  1.00  0.00    +0.171 HD
BRANCH  22  25
ATOM     25  C   UNL     1      -9.840   6.161 -18.029  1.00  0.00    +0.043 A 
ATOM     26  C   UNL     1      -9.372   7.288 -17.358  1.00  0.00    +0.028 A 
ATOM     27  C   UNL     1     -10.140   6.268 -19.395  1.00  0.00    +0.040 A 
ATOM     28  C   UNL     1      -9.197   8.496 -18.040  1.00  0.00    +0.023 A 
ATOM     29  C   UNL     1      -9.969   7.480 -20.097  1.00  0.00    +0.076 A 
ATOM     30  C   UNL     1      -9.492   8.594 -19.401  1.00  0.00    +0.053 A 
ATOM     31 Cl   UNL     1      -9.248  10.121 -20.166  1.00  0.00    -0.084 Cl
BRANCH  29  32
ATOM     32  C   UNL     1     -10.300   7.551 -21.563  1.00  0.00    +0.417 C 
ATOM     33  F   UNL     1     -11.283   8.447 -21.847  1.00  0.00    -0.166 F 
ATOM     34  F   UNL     1      -9.232   7.885 -22.338  1.00  0.00    -0.166 F 
ATOM     35  F   UNL     1     -10.746   6.360 -22.061  1.00  0.00    -0.166 F 
ENDBRANCH  29  32
ENDBRANCH  22  25
ENDBRANCH   4  19
TORSDOF 6
ENDMDL
MODEL 3
REMARK VINA RESULT:    -8.629      7.714     10.036
REMARK INTER + INTRA:         -12.694
REMARK INTER:                 -11.679
REMARK INTRA:                  -1.015
REMARK UNBOUND:                -1.039
REMARK SMILES CNC(=O)c1cc(Oc2ccc(NC(=O)Nc3ccc(Cl)c(C(F)(F)F)c3)cc2)ccn1
REMARK SMILES IDX 9 1 10 2 11 3 12 4 28 5 29 6 8 7 7 8 5 9 6 10 32 11 31 12
REMARK SMILES IDX 30 13 3 14 2 15 4 16 1 17 13 19 14 20 15 21 16 22 17 25
REMARK SMILES IDX 18 26 27 27 19 28 22 29 20 30 21 31 23 32 24 33 25 34 26 35
REMARK H PARENT 2 18 13 23 16 24
ROOT
ATOM      1  C   UNL     1      -7.707  -0.401 -14.610  1.00  0.00    +0.127 A 
ATOM      2  C   UNL     1      -7.878  -0.360 -15.991  1.00  0.00    +0.049 A 
ATOM      3  C   UNL     1      -8.507   0.738 -16.588  1.00  0.00    +0.030 A 
ATOM      4  C   UNL     1      -8.949   1.811 -15.810  1.00  0.00    +0.043 A 
ATOM      5  C   UNL     1      -8.753   1.767 -14.422  1.00  0.00    +0.030 A 
ATOM      6  C   UNL     1      -8.128   0.670 -13.823  1.00  0.00    +0.049 A 
ENDROOT
BRANCH   1   7
ATOM      7  O   UNL     1      -7.055  -1.490 -14.082  1.00  0.00    -0.457 OA
BRANCH   7   8
ATOM      8  C   UNL     1      -5.809  -1.777 -14.593  1.00  0.00    +0.131 A 
ATOM      9  C   UNL     1      -4.334  -3.374 -15.538  1.00  0.00    +0.131 A 
ATOM     10  C   UNL     1      -5.595  -3.068 -15.054  1.00  0.00    +0.081 A 
ATOM     11  N   UNL     1      -3.296  -2.489 -15.578  1.00  0.00    -0.251 NA
ATOM     12  C   UNL     1      -3.541  -1.252 -15.095  1.00  0.00    +0.116 A 
ATOM     13  C   UNL     1      -4.767  -0.851 -14.593  1.00  0.00    +0.067 A 
BRANCH   9  14
ATOM     14  C   UNL     1      -4.053  -4.748 -16.068  1.00  0.00    +0.269 C 
ATOM     15  N   UNL     1      -5.051  -5.666 -15.815  1.00  0.00    -0.354 N 
ATOM     16  O   UNL     1      -3.013  -5.008 -16.660  1.00  0.00    -0.268 OA
ATOM     17  C   UNL     1      -4.916  -7.060 -16.134  1.00  0.00    +0.143 C 
ATOM     18  H   UNL     1      -5.815  -5.343 -15.227  1.00  0.00    +0.163 HD
ENDBRANCH   9  14
ENDBRANCH   7   8
ENDBRANCH   1   7
BRANCH   4  19
ATOM     19  N   UNL     1      -9.597   2.951 -16.332  1.00  0.00    -0.308 N 
ATOM     20  C   UNL     1      -9.012   4.051 -16.945  1.00  0.00    +0.323 C 
ATOM     21  O   UNL     1      -7.809   4.236 -17.060  1.00  0.00    -0.248 OA
ATOM     22  N   UNL     1      -9.995   4.913 -17.416  1.00  0.00    -0.308 N 
ATOM     23  H   UNL     1     -10.578   3.033 -16.116  1.00  0.00    +0.171 HD
ATOM     24  H   UNL     1     -10.925   4.529 -17.470  1.00  0.00    +0.171 HD
BRANCH  22  25
ATOM     25  C   UNL     1      -9.810   6.183 -18.001  1.00  0.00    +0.043 A 
ATOM     26  C   UNL     1      -9.377   7.308 -17.303  1.00  0.00    +0.028 A 
ATOM     27  C   UNL     1     -10.104   6.310 -19.365  1.00  0.00    +0.040 A 
ATOM     28  C   UNL     1      -9.229   8.534 -17.959  1.00  0.00    +0.023 A 
ATOM     29  C   UNL     1      -9.960   7.540 -20.042  1.00  0.00    +0.076 A 
ATOM     30  C   UNL     1      -9.516   8.651 -19.321  1.00  0.00    +0.053 A 
ATOM     31 Cl   UNL     1      -9.307  10.199 -20.053  1.00  0.00    -0.084 Cl
BRANCH  29  32
ATOM     32  C   UNL     1     -10.282   7.633 -21.508  1.00  0.00    +0.417 C 
ATOM     33  F   UNL     1      -9.230   8.054 -22.262  1.00  0.00    -0.166 F 
ATOM     34  F   UNL     1     -10.697   6.452 -22.043  1.00  0.00    -0.166 F 
ATOM     35  F   UNL     1     -11.289   8.518 -21.772  1.00  0.00    -0.166 F 
ENDBRANCH  29  32
ENDBRANCH  22  25
ENDBRANCH   4  19
TORSDOF 6
ENDMDL
MODEL 4
REMARK VINA RESULT:    -8.567      7.357      9.417
REMARK INTER + INTRA:         -12.611
REMARK INTER:                 -11.831
REMARK INTRA:                  -0.780
REMARK UNBOUND:                -1.039
REMARK SMILES CNC(=O)c1cc(Oc2ccc(NC(=O)Nc3ccc(Cl)c(C(F)(F)F)c3)cc2)ccn1
REMARK SMILES IDX 9 1 10 2 11 3 12 4 28 5 29 6 8 7 7 8 5 9 6 10 32 11 31 12
REMARK SMILES IDX 30 13 3 14 2 15 4 16 1 17 13 19 14 20 15 21 16 22 17 25
REMARK SMILES IDX 18 26 27 27 19 28 22 29 20 30 21 31 23 32 24 33 25 34 26 35
REMARK H PARENT 2 18 13 23 16 24
ROOT
ATOM      1  C   UNL     1      -8.088  -0.150 -14.157  1.00  0.00    +0.127 A 
ATOM      2  C   UNL     1      -8.089  -0.132 -15.549  1.00  0.00    +0.049 A 
ATOM      3  C   UNL     1      -8.660   0.945 -16.236  1.00  0.00    +0.030 A 
ATOM      4  C   UNL     1      -9.212   2.020 -15.536  1.00  0.00    +0.043 A 
ATOM      5  C   UNL     1      -9.188   1.999 -14.134  1.00  0.00    +0.030 A 
ATOM      6  C   UNL     1      -8.621   0.923 -13.445  1.00  0.00    +0.049 A 
ENDROOT
BRANCH   1   7
ATOM      7  O   UNL     1      -7.487  -1.219 -13.536  1.00  0.00    -0.457 OA
BRANCH   7   8
ATOM      8  C   UNL     1      -6.117  -1.307 -13.637  1.00  0.00    +0.131 A 
ATOM      9  C   UNL     1      -3.993  -0.949 -12.647  1.00  0.00    +0.131 A 
ATOM     10  C   UNL     1      -5.373  -0.895 -12.541  1.00  0.00    +0.081 A 
ATOM     11  N   UNL     1      -3.329  -1.370 -13.763  1.00  0.00    -0.251 NA
ATOM     12  C   UNL     1      -4.092  -1.737 -14.815  1.00  0.00    +0.116 A 
ATOM     13  C   UNL     1      -5.476  -1.720 -14.804  1.00  0.00    +0.067 A 
BRANCH   9  14
ATOM     14  C   UNL     1      -3.140  -0.535 -11.485  1.00  0.00    +0.269 C 
ATOM     15  N   UNL     1      -1.786  -0.693 -11.694  1.00  0.00    -0.354 N 
ATOM     16  O   UNL     1      -3.632  -0.111 -10.447  1.00  0.00    -0.268 OA
ATOM     17  C   UNL     1      -0.814  -0.469 -10.659  1.00  0.00    +0.143 C 
ATOM     18  H   UNL     1      -1.519  -1.151 -12.562  1.00  0.00    +0.163 HD
ENDBRANCH   9  14
ENDBRANCH   7   8
ENDBRANCH   1   7
BRANCH   4  19
ATOM     19  N   UNL     1      -9.812   3.139 -16.152  1.00  0.00    -0.308 N 
ATOM     20  C   UNL     1      -9.176   4.199 -16.786  1.00  0.00    +0.323 C 
ATOM     21  O   UNL     1      -7.965   4.361 -16.841  1.00  0.00    -0.248 OA
ATOM     22  N   UNL     1     -10.116   5.048 -17.356  1.00  0.00    -0.308 N 
ATOM     23  H   UNL     1     -10.802   3.245 -15.997  1.00  0.00    +0.171 HD
ATOM     24  H   UNL     1     -11.048   4.673 -17.444  1.00  0.00    +0.171 HD
BRANCH  22  25
ATOM     25  C   UNL     1      -9.878   6.283 -17.993  1.00  0.00    +0.043 A 
ATOM     26  C   UNL     1      -9.400   7.418 -17.343  1.00  0.00    +0.028 A 
ATOM     27  C   UNL     1     -10.165   6.364 -19.363  1.00  0.00    +0.040 A 
ATOM     28  C   UNL     1      -9.200   8.608 -18.050  1.00  0.00    +0.023 A 
ATOM     29  C   UNL     1      -9.970   7.557 -20.091  1.00  0.00    +0.076 A 
ATOM     30  C   UNL     1      -9.481   8.679 -19.415  1.00  0.00    +0.053 A 
ATOM     31 Cl   UNL     1      -9.207  10.184 -20.212  1.00  0.00    -0.084 Cl
BRANCH  29  32
ATOM     32  C   UNL     1     -10.286   7.601 -21.560  1.00  0.00    +0.417 C 
ATOM     33  F   UNL     1     -11.290   8.466 -21.867  1.00  0.00    -0.166 F 
ATOM     34  F   UNL     1      -9.220   7.953 -22.329  1.00  0.00    -0.166 F 
ATOM     35  F   UNL     1     -10.694   6.391 -22.048  1.00  0.00    -0.166 F 
ENDBRANCH  29  32
ENDBRANCH  22  25
ENDBRANCH   4  19
TORSDOF 6
ENDMDL
MODEL 5
REMARK VINA RESULT:    -8.483      7.765     10.330
REMARK INTER + INTRA:         -12.498
REMARK INTER:                 -11.780
REMARK INTRA:                  -0.718
REMARK UNBOUND:                -1.039
REMARK SMILES CNC(=O)c1cc(Oc2ccc(NC(=O)Nc3ccc(Cl)c(C(F)(F)F)c3)cc2)ccn1
REMARK SMILES IDX 9 1 10 2 11 3 12 4 28 5 29 6 8 7 7 8 5 9 6 10 32 11 31 12
REMARK SMILES IDX 30 13 3 14 2 15 4 16 1 17 13 19 14 20 15 21 16 22 17 25
REMARK SMILES IDX 18 26 27 27 19 28 22 29 20 30 21 31 23 32 24 33 25 34 26 35
REMARK H PARENT 2 18 13 23 16 24
ROOT
ATOM      1  C   UNL     1      -7.619  -0.275 -14.592  1.00  0.00    +0.127 A 
ATOM      2  C   UNL     1      -7.829   0.809 -13.743  1.00  0.00    +0.049 A 
ATOM      3  C   UNL     1      -8.478   1.954 -14.215  1.00  0.00    +0.030 A 
ATOM      4  C   UNL     1      -8.941   2.016 -15.532  1.00  0.00    +0.043 A 
ATOM      5  C   UNL     1      -8.741   0.910 -16.372  1.00  0.00    +0.030 A 
ATOM      6  C   UNL     1      -8.090  -0.235 -15.903  1.00  0.00    +0.049 A 
ENDROOT
BRANCH   1   7
ATOM      7  O   UNL     1      -7.004  -1.386 -14.064  1.00  0.00    -0.457 OA
BRANCH   7   8
ATOM      8  C   UNL     1      -5.954  -1.914 -14.782  1.00  0.00    +0.131 A 
ATOM      9  C   UNL     1      -4.155  -1.558 -16.284  1.00  0.00    +0.131 A 
ATOM     10  C   UNL     1      -5.192  -1.030 -15.532  1.00  0.00    +0.081 A 
ATOM     11  N   UNL     1      -3.849  -2.887 -16.336  1.00  0.00    -0.251 NA
ATOM     12  C   UNL     1      -4.633  -3.714 -15.611  1.00  0.00    +0.116 A 
ATOM     13  C   UNL     1      -5.690  -3.282 -14.828  1.00  0.00    +0.067 A 
BRANCH   9  14
ATOM     14  C   UNL     1      -3.286  -0.646 -17.097  1.00  0.00    +0.269 C 
ATOM     15  N   UNL     1      -3.633  -0.575 -18.430  1.00  0.00    -0.354 N 
ATOM     16  O   UNL     1      -2.347  -0.040 -16.597  1.00  0.00    -0.268 OA
ATOM     17  C   UNL     1      -2.850   0.146 -19.394  1.00  0.00    +0.143 C 
ATOM     18  H   UNL     1      -4.370  -1.208 -18.733  1.00  0.00    +0.163 HD
ENDBRANCH   9  14
ENDBRANCH   7   8
ENDBRANCH   1   7
BRANCH   4  19
ATOM     19  N   UNL     1      -9.598   3.134 -16.087  1.00  0.00    -0.308 N 
ATOM     20  C   UNL     1      -9.025   4.203 -16.763  1.00  0.00    +0.323 C 
ATOM     21  O   UNL     1      -7.824   4.377 -16.916  1.00  0.00    -0.248 OA
ATOM     22  N   UNL     1     -10.015   5.048 -17.247  1.00  0.00    -0.308 N 
ATOM     23  H   UNL     1     -10.572   3.230 -15.851  1.00  0.00    +0.171 HD
ATOM     24  H   UNL     1     -10.948   4.666 -17.261  1.00  0.00    +0.171 HD
BRANCH  22  25
ATOM     25  C   UNL     1      -9.841   6.290 -17.892  1.00  0.00    +0.043 A 
ATOM     26  C   UNL     1      -9.424   7.453 -17.248  1.00  0.00    +0.028 A 
ATOM     27  C   UNL     1     -10.128   6.347 -19.263  1.00  0.00    +0.040 A 
ATOM     28  C   UNL     1      -9.285   8.647 -17.962  1.00  0.00    +0.023 A 
ATOM     29  C   UNL     1      -9.992   7.544 -19.998  1.00  0.00    +0.076 A 
ATOM     30  C   UNL     1      -9.565   8.694 -19.329  1.00  0.00    +0.053 A 
ATOM     31 Cl   UNL     1      -9.368  10.207 -20.135  1.00  0.00    -0.084 Cl
BRANCH  29  32
ATOM     32  C   UNL     1     -10.306   7.561 -21.469  1.00  0.00    +0.417 C 
ATOM     33  F   UNL     1     -10.710   6.352 -21.945  1.00  0.00    -0.166 F 
ATOM     34  F   UNL     1     -11.278   8.455 -21.801  1.00  0.00    -0.166 F 
ATOM     35  F   UNL     1      -9.227   7.904 -22.234  1.00  0.00    -0.166 F 
ENDBRANCH  29  32
ENDBRANCH  22  25
ENDBRANCH   4  19
TORSDOF 6
ENDMDL
MODEL 6
REMARK VINA RESULT:    -8.479      1.372      1.850
REMARK INTER + INTRA:         -12.492
REMARK INTER:                 -12.260
REMARK INTRA:                  -0.232
REMARK UNBOUND:                -1.039
REMARK SMILES CNC(=O)c1cc(Oc2ccc(NC(=O)Nc3ccc(Cl)c(C(F)(F)F)c3)cc2)ccn1
REMARK SMILES IDX 9 1 10 2 11 3 12 4 28 5 29 6 8 7 7 8 5 9 6 10 32 11 31 12
REMARK SMILES IDX 30 13 3 14 2 15 4 16 1 17 13 19 14 20 15 21 16 22 17 25
REMARK SMILES IDX 18 26 27 27 19 28 22 29 20 30 21 31 23 32 24 33 25 34 26 35
REMARK H PARENT 2 18 13 23 16 24
ROOT
ATOM      1  C   UNL     1     -13.455   0.065  -8.946  1.00  0.00    +0.127 A 
ATOM      2  C   UNL     1     -12.148   0.044  -9.425  1.00  0.00    +0.049 A 
ATOM      3  C   UNL     1     -11.834   0.673 -10.634  1.00  0.00    +0.030 A 
ATOM      4  C   UNL     1     -12.820   1.347 -11.360  1.00  0.00    +0.043 A 
ATOM      5  C   UNL     1     -14.129   1.378 -10.857  1.00  0.00    +0.030 A 
ATOM      6  C   UNL     1     -14.445   0.747  -9.650  1.00  0.00    +0.049 A 
ENDROOT
BRANCH   1   7
ATOM      7  O   UNL     1     -13.698  -0.544  -7.737  1.00  0.00    -0.457 OA
BRANCH   7   8
ATOM      8  C   UNL     1     -14.969  -1.031  -7.531  1.00  0.00    +0.131 A 
ATOM      9  C   UNL     1     -17.083  -0.776  -6.488  1.00  0.00    +0.131 A 
ATOM     10  C   UNL     1     -15.813  -0.276  -6.728  1.00  0.00    +0.081 A 
ATOM     11  N   UNL     1     -17.544  -1.961  -6.983  1.00  0.00    -0.251 NA
ATOM     12  C   UNL     1     -16.681  -2.674  -7.738  1.00  0.00    +0.116 A 
ATOM     13  C   UNL     1     -15.394  -2.259  -8.035  1.00  0.00    +0.067 A 
BRANCH   9  14
ATOM     14  C   UNL     1     -18.043   0.008  -5.643  1.00  0.00    +0.269 C 
ATOM     15  N   UNL     1     -19.199   0.377  -6.298  1.00  0.00    -0.354 N 
ATOM     16  O   UNL     1     -17.789   0.294  -4.480  1.00  0.00    -0.268 OA
ATOM     17  C   UNL     1     -20.185   1.233  -5.699  1.00  0.00    +0.143 C 
ATOM     18  H   UNL     1     -19.237   0.162  -7.291  1.00  0.00    +0.163 HD
ENDBRANCH   9  14
ENDBRANCH   7   8
ENDBRANCH   1   7
BRANCH   4  19
ATOM     19  N   UNL     1     -12.589   2.001 -12.589  1.00  0.00    -0.308 N 
ATOM     20  C   UNL     1     -11.367   2.238 -13.205  1.00  0.00    +0.323 C 
ATOM     21  O   UNL     1     -10.274   1.974 -12.725  1.00  0.00    -0.248 OA
ATOM     22  N   UNL     1     -11.566   2.815 -14.453  1.00  0.00    -0.308 N 
ATOM     23  H   UNL     1     -13.387   2.461 -12.996  1.00  0.00    +0.171 HD
ATOM     24  H   UNL     1     -12.503   2.753 -14.820  1.00  0.00    +0.171 HD
BRANCH  22  25
ATOM     25  C   UNL     1     -10.581   3.299 -15.338  1.00  0.00    +0.043 A 
ATOM     26  C   UNL     1      -9.554   2.519 -15.865  1.00  0.00    +0.028 A 
ATOM     27  C   UNL     1     -10.640   4.656 -15.685  1.00  0.00    +0.040 A 
ATOM     28  C   UNL     1      -8.611   3.081 -16.731  1.00  0.00    +0.023 A 
ATOM     29  C   UNL     1      -9.696   5.238 -16.558  1.00  0.00    +0.076 A 
ATOM     30  C   UNL     1      -8.681   4.432 -17.078  1.00  0.00    +0.053 A 
ATOM     31 Cl   UNL     1      -7.478   5.045 -18.153  1.00  0.00    -0.084 Cl
BRANCH  29  32
ATOM     32  C   UNL     1      -9.798   6.697 -16.909  1.00  0.00    +0.417 C 
ATOM     33  F   UNL     1     -10.248   6.914 -18.175  1.00  0.00    -0.166 F 
ATOM     34  F   UNL     1     -10.622   7.393 -16.078  1.00  0.00    -0.166 F 
ATOM     35  F   UNL     1      -8.595   7.341 -16.842  1.00  0.00    -0.166 F 
ENDBRANCH  29  32
ENDBRANCH  22  25
ENDBRANCH   4  19
TORSDOF 6
ENDMDL
MODEL 7
REMARK VINA RESULT:    -8.449      2.356      3.464
REMARK INTER + INTRA:         -12.452
REMARK INTER:                 -11.567
REMARK INTRA:                  -0.885
REMARK UNBOUND:                -1.039
REMARK SMILES CNC(=O)c1cc(Oc2ccc(NC(=O)Nc3ccc(Cl)c(C(F)(F)F)c3)cc2)ccn1
REMARK SMILES IDX 9 1 10 2 11 3 12 4 28 5 29 6 8 7 7 8 5 9 6 10 32 11 31 12
REMARK SMILES IDX 30 13 3 14 2 15 4 16 1 17 13 19 14 20 15 21 16 22 17 25
REMARK SMILES IDX 18 26 27 27 19 28 22 29 20 30 21 31 23 32 24 33 25 34 26 35
REMARK H PARENT 2 18 13 23 16 24
ROOT
ATOM      1  C   UNL     1     -13.991  -0.595  -9.790  1.00  0.00    +0.127 A 
ATOM      2  C   UNL     1     -14.429   0.643 -10.251  1.00  0.00    +0.049 A 
ATOM      3  C   UNL     1     -13.551   1.485 -10.941  1.00  0.00    +0.030 A 
ATOM      4  C   UNL     1     -12.236   1.085 -11.194  1.00  0.00    +0.043 A 
ATOM      5  C   UNL     1     -11.812  -0.173 -10.741  1.00  0.00    +0.030 A 
ATOM      6  C   UNL     1     -12.687  -1.015 -10.048  1.00  0.00    +0.049 A 
ENDROOT
BRANCH   1   7
ATOM      7  O   UNL     1     -14.906  -1.393  -9.144  1.00  0.00    -0.457 OA
BRANCH   7   8
ATOM      8  C   UNL     1     -14.413  -2.274  -8.209  1.00  0.00    +0.131 A 
ATOM      9  C   UNL     1     -13.869  -4.508  -7.631  1.00  0.00    +0.131 A 
ATOM     10  C   UNL     1     -14.333  -3.610  -8.578  1.00  0.00    +0.081 A 
ATOM     11  N   UNL     1     -13.499  -4.160  -6.364  1.00  0.00    -0.251 NA
ATOM     12  C   UNL     1     -13.618  -2.855  -6.040  1.00  0.00    +0.116 A 
ATOM     13  C   UNL     1     -14.069  -1.883  -6.916  1.00  0.00    +0.067 A 
BRANCH   9  14
ATOM     14  C   UNL     1     -13.743  -5.961  -7.982  1.00  0.00    +0.269 C 
ATOM     15  N   UNL     1     -12.889  -6.215  -9.034  1.00  0.00    -0.354 N 
ATOM     16  O   UNL     1     -14.367  -6.824  -7.378  1.00  0.00    -0.268 OA
ATOM     17  C   UNL     1     -12.728  -7.527  -9.599  1.00  0.00    +0.143 C 
ATOM     18  H   UNL     1     -12.514  -5.399  -9.511  1.00  0.00    +0.163 HD
ENDBRANCH   9  14
ENDBRANCH   7   8
ENDBRANCH   1   7
BRANCH   4  19
ATOM     19  N   UNL     1     -11.287   1.876 -11.876  1.00  0.00    -0.308 N 
ATOM     20  C   UNL     1     -11.190   2.090 -13.244  1.00  0.00    +0.323 C 
ATOM     21  O   UNL     1     -11.887   1.550 -14.092  1.00  0.00    -0.248 OA
ATOM     22  N   UNL     1     -10.187   3.013 -13.513  1.00  0.00    -0.308 N 
ATOM     23  H   UNL     1     -10.518   2.213 -11.319  1.00  0.00    +0.171 HD
ATOM     24  H   UNL     1      -9.865   3.552 -12.724  1.00  0.00    +0.171 HD
BRANCH  22  25
ATOM     25  C   UNL     1      -9.712   3.416 -14.778  1.00  0.00    +0.043 A 
ATOM     26  C   UNL     1      -8.550   2.926 -15.368  1.00  0.00    +0.028 A 
ATOM     27  C   UNL     1     -10.456   4.387 -15.464  1.00  0.00    +0.040 A 
ATOM     28  C   UNL     1      -8.144   3.387 -16.624  1.00  0.00    +0.023 A 
ATOM     29  C   UNL     1     -10.060   4.863 -16.732  1.00  0.00    +0.076 A 
ATOM     30  C   UNL     1      -8.894   4.349 -17.305  1.00  0.00    +0.053 A 
ATOM     31 Cl   UNL     1      -8.324   4.863 -18.849  1.00  0.00    -0.084 Cl
BRANCH  29  32
ATOM     32  C   UNL     1     -10.890   5.902 -17.436  1.00  0.00    +0.417 C 
ATOM     33  F   UNL     1     -12.028   6.224 -16.764  1.00  0.00    -0.166 F 
ATOM     34  F   UNL     1     -10.221   7.067 -17.652  1.00  0.00    -0.166 F 
ATOM     35  F   UNL     1     -11.307   5.494 -18.672  1.00  0.00    -0.166 F 
ENDBRANCH  29  32
ENDBRANCH  22  25
ENDBRANCH   4  19
TORSDOF 6
ENDMDL
MODEL 8
REMARK VINA RESULT:    -8.368      3.731      5.198
REMARK INTER + INTRA:         -12.342
REMARK INTER:                 -12.095
REMARK INTRA:                  -0.247
REMARK UNBOUND:                -1.039
REMARK SMILES CNC(=O)c1cc(Oc2ccc(NC(=O)Nc3ccc(Cl)c(C(F)(F)F)c3)cc2)ccn1
REMARK SMILES IDX 9 1 10 2 11 3 12 4 28 5 29 6 8 7 7 8 5 9 6 10 32 11 31 12
REMARK SMILES IDX 30 13 3 14 2 15 4 16 1 17 13 19 14 20 15 21 16 22 17 25
REMARK SMILES IDX 18 26 27 27 19 28 22 29 20 30 21 31 23 32 24 33 25 34 26 35
REMARK H PARENT 2 18 13 23 16 24
ROOT
ATOM      1  C   UNL     1     -10.112  -0.117 -13.059  1.00  0.00    +0.127 A 
ATOM      2  C   UNL     1      -9.364   0.218 -14.184  1.00  0.00    +0.049 A 
ATOM      3  C   UNL     1      -9.636   1.398 -14.883  1.00  0.00    +0.030 A 
ATOM      4  C   UNL     1     -10.644   2.263 -14.448  1.00  0.00    +0.043 A 
ATOM      5  C   UNL     1     -11.378   1.925 -13.302  1.00  0.00    +0.030 A 
ATOM      6  C   UNL     1     -11.110   0.744 -12.604  1.00  0.00    +0.049 A 
ENDROOT
BRANCH   1   7
ATOM      7  O   UNL     1      -9.779  -1.274 -12.395  1.00  0.00    -0.457 OA
BRANCH   7   8
ATOM      8  C   UNL     1     -10.695  -1.755 -11.486  1.00  0.00    +0.131 A 
ATOM      9  C   UNL     1     -11.711  -1.565  -9.353  1.00  0.00    +0.131 A 
ATOM     10  C   UNL     1     -10.816  -1.068 -10.286  1.00  0.00    +0.081 A 
ATOM     11  N   UNL     1     -12.465  -2.687  -9.539  1.00  0.00    -0.251 NA
ATOM     12  C   UNL     1     -12.296  -3.337 -10.710  1.00  0.00    +0.116 A 
ATOM     13  C   UNL     1     -11.429  -2.919 -11.704  1.00  0.00    +0.067 A 
BRANCH   9  14
ATOM     14  C   UNL     1     -11.897  -0.851  -8.047  1.00  0.00    +0.269 C 
ATOM     15  N   UNL     1     -11.033   0.206  -7.853  1.00  0.00    -0.354 N 
ATOM     16  O   UNL     1     -12.743  -1.206  -7.236  1.00  0.00    -0.268 OA
ATOM     17  C   UNL     1     -10.972   0.936  -6.617  1.00  0.00    +0.143 C 
ATOM     18  H   UNL     1     -10.313   0.329  -8.561  1.00  0.00    +0.163 HD
ENDBRANCH   9  14
ENDBRANCH   7   8
ENDBRANCH   1   7
BRANCH   4  19
ATOM     19  N   UNL     1     -10.986   3.467 -15.098  1.00  0.00    -0.308 N 
ATOM     20  C   UNL     1     -10.152   4.300 -15.832  1.00  0.00    +0.323 C 
ATOM     21  O   UNL     1      -8.946   4.148 -15.965  1.00  0.00    -0.248 OA
ATOM     22  N   UNL     1     -10.888   5.333 -16.400  1.00  0.00    -0.308 N 
ATOM     23  H   UNL     1     -11.906   3.828 -14.895  1.00  0.00    +0.171 HD
ATOM     24  H   UNL     1     -11.888   5.203 -16.412  1.00  0.00    +0.171 HD
BRANCH  22  25
ATOM     25  C   UNL     1     -10.394   6.436 -17.126  1.00  0.00    +0.043 A 
ATOM     26  C   UNL     1      -9.787   7.546 -16.542  1.00  0.00    +0.028 A 
ATOM     27  C   UNL     1     -10.550   6.410 -18.519  1.00  0.00    +0.040 A 
ATOM     28  C   UNL     1      -9.333   8.604 -17.336  1.00  0.00    +0.023 A 
ATOM     29  C   UNL     1     -10.098   7.469 -19.334  1.00  0.00    +0.076 A 
ATOM     30  C   UNL     1      -9.485   8.567 -18.724  1.00  0.00    +0.053 A 
ATOM     31 Cl   UNL     1      -8.897   9.913 -19.630  1.00  0.00    -0.084 Cl
BRANCH  29  32
ATOM     32  C   UNL     1     -10.280   7.399 -20.825  1.00  0.00    +0.417 C 
ATOM     33  F   UNL     1     -10.862   6.242 -21.240  1.00  0.00    -0.166 F 
ATOM     34  F   UNL     1     -11.036   8.416 -21.322  1.00  0.00    -0.166 F 
ATOM     35  F   UNL     1      -9.097   7.468 -21.505  1.00  0.00    -0.166 F 
ENDBRANCH  29  32
ENDBRANCH  22  25
ENDBRANCH   4  19
TORSDOF 6
ENDMDL
MODEL 9
REMARK VINA RESULT:    -8.318      1.295      2.568
REMARK INTER + INTRA:         -12.275
REMARK INTER:                 -11.222
REMARK INTRA:                  -1.053
REMARK UNBOUND:                -1.039
REMARK SMILES CNC(=O)c1cc(Oc2ccc(NC(=O)Nc3ccc(Cl)c(C(F)(F)F)c3)cc2)ccn1
REMARK SMILES IDX 9 1 10 2 11 3 12 4 28 5 29 6 8 7 7 8 5 9 6 10 32 11 31 12
REMARK SMILES IDX 30 13 3 14 2 15 4 16 1 17 13 19 14 20 15 21 16 22 17 25
REMARK SMILES IDX 18 26 27 27 19 28 22 29 20 30 21 31 23 32 24 33 25 34 26 35
REMARK H PARENT 2 18 13 23 16 24
ROOT
ATOM      1  C   UNL     1     -13.659  -0.898  -9.778  1.00  0.00    +0.127 A 
ATOM      2  C   UNL     1     -14.137   0.345 -10.184  1.00  0.00    +0.049 A 
ATOM      3  C   UNL     1     -13.299   1.226 -10.875  1.00  0.00    +0.030 A 
ATOM      4  C   UNL     1     -11.986   0.863 -11.183  1.00  0.00    +0.043 A 
ATOM      5  C   UNL     1     -11.522  -0.400 -10.785  1.00  0.00    +0.030 A 
ATOM      6  C   UNL     1     -12.356  -1.282 -10.092  1.00  0.00    +0.049 A 
ENDROOT
BRANCH   1   7
ATOM      7  O   UNL     1     -14.536  -1.735  -9.129  1.00  0.00    -0.457 OA
BRANCH   7   8
ATOM      8  C   UNL     1     -14.901  -1.382  -7.850  1.00  0.00    +0.131 A 
ATOM      9  C   UNL     1     -14.282  -1.106  -5.578  1.00  0.00    +0.131 A 
ATOM     10  C   UNL     1     -13.915  -1.427  -6.874  1.00  0.00    +0.081 A 
ATOM     11  N   UNL     1     -15.549  -0.761  -5.206  1.00  0.00    -0.251 NA
ATOM     12  C   UNL     1     -16.482  -0.755  -6.182  1.00  0.00    +0.116 A 
ATOM     13  C   UNL     1     -16.213  -1.059  -7.505  1.00  0.00    +0.067 A 
BRANCH   9  14
ATOM     14  C   UNL     1     -13.252  -1.118  -4.488  1.00  0.00    +0.269 C 
ATOM     15  N   UNL     1     -12.883  -2.380  -4.073  1.00  0.00    -0.354 N 
ATOM     16  O   UNL     1     -12.804  -0.080  -4.017  1.00  0.00    -0.268 OA
ATOM     17  C   UNL     1     -12.003  -2.601  -2.959  1.00  0.00    +0.143 C 
ATOM     18  H   UNL     1     -13.407  -3.153  -4.478  1.00  0.00    +0.163 HD
ENDBRANCH   9  14
ENDBRANCH   7   8
ENDBRANCH   1   7
BRANCH   4  19
ATOM     19  N   UNL     1     -11.076   1.694 -11.870  1.00  0.00    -0.308 N 
ATOM     20  C   UNL     1     -11.011   1.932 -13.237  1.00  0.00    +0.323 C 
ATOM     21  O   UNL     1     -11.706   1.383 -14.080  1.00  0.00    -0.248 OA
ATOM     22  N   UNL     1     -10.045   2.892 -13.509  1.00  0.00    -0.308 N 
ATOM     23  H   UNL     1     -10.308   2.048 -11.322  1.00  0.00    +0.171 HD
ATOM     24  H   UNL     1      -9.725   3.429 -12.717  1.00  0.00    +0.171 HD
BRANCH  22  25
ATOM     25  C   UNL     1      -9.607   3.329 -14.776  1.00  0.00    +0.043 A 
ATOM     26  C   UNL     1      -8.453   2.868 -15.405  1.00  0.00    +0.028 A 
ATOM     27  C   UNL     1     -10.380   4.305 -15.421  1.00  0.00    +0.040 A 
ATOM     28  C   UNL     1      -8.085   3.363 -16.660  1.00  0.00    +0.023 A 
ATOM     29  C   UNL     1     -10.023   4.814 -16.688  1.00  0.00    +0.076 A 
ATOM     30  C   UNL     1      -8.865   4.328 -17.300  1.00  0.00    +0.053 A 
ATOM     31 Cl   UNL     1      -8.340   4.885 -18.847  1.00  0.00    -0.084 Cl
BRANCH  29  32
ATOM     32  C   UNL     1     -10.883   5.857 -17.348  1.00  0.00    +0.417 C 
ATOM     33  F   UNL     1     -12.024   6.125 -16.657  1.00  0.00    -0.166 F 
ATOM     34  F   UNL     1     -10.245   7.046 -17.524  1.00  0.00    -0.166 F 
ATOM     35  F   UNL     1     -11.299   5.485 -18.595  1.00  0.00    -0.166 F 
ENDBRANCH  29  32
ENDBRANCH  22  25
ENDBRANCH   4  19
TORSDOF 6
ENDMDL
MODEL 10
REMARK VINA RESULT:    -8.283      1.733      2.198
REMARK INTER + INTRA:         -12.228
REMARK INTER:                 -11.324
REMARK INTRA:                  -0.903
REMARK UNBOUND:                -1.039
REMARK SMILES CNC(=O)c1cc(Oc2ccc(NC(=O)Nc3ccc(Cl)c(C(F)(F)F)c3)cc2)ccn1
REMARK SMILES IDX 9 1 10 2 11 3 12 4 28 5 29 6 8 7 7 8 5 9 6 10 32 11 31 12
REMARK SMILES IDX 30 13 3 14 2 15 4 16 1 17 13 19 14 20 15 21 16 22 17 25
REMARK SMILES IDX 18 26 27 27 19 28 22 29 20 30 21 31 23 32 24 33 25 34 26 35
REMARK H PARENT 2 18 13 23 16 24
ROOT
ATOM      1  C   UNL     1     -13.713  -1.093  -9.612  1.00  0.00    +0.127 A 
ATOM      2  C   UNL     1     -14.183   0.156 -10.009  1.00  0.00    +0.049 A 
ATOM      3  C   UNL     1     -13.349   1.026 -10.718  1.00  0.00    +0.030 A 
ATOM      4  C   UNL     1     -12.047   0.645 -11.053  1.00  0.00    +0.043 A 
ATOM      5  C   UNL     1     -11.592  -0.623 -10.665  1.00  0.00    +0.030 A 
ATOM      6  C   UNL     1     -12.423  -1.494  -9.954  1.00  0.00    +0.049 A 
ENDROOT
BRANCH   1   7
ATOM      7  O   UNL     1     -14.588  -1.918  -8.945  1.00  0.00    -0.457 OA
BRANCH   7   8
ATOM      8  C   UNL     1     -14.886  -1.585  -7.643  1.00  0.00    +0.131 A 
ATOM      9  C   UNL     1     -16.451  -0.708  -6.093  1.00  0.00    +0.131 A 
ATOM     10  C   UNL     1     -16.154  -1.077  -7.395  1.00  0.00    +0.081 A 
ATOM     11  N   UNL     1     -15.573  -0.805  -5.052  1.00  0.00    -0.251 NA
ATOM     12  C   UNL     1     -14.343  -1.280  -5.345  1.00  0.00    +0.116 A 
ATOM     13  C   UNL     1     -13.953  -1.676  -6.612  1.00  0.00    +0.067 A 
BRANCH   9  14
ATOM     14  C   UNL     1     -17.812  -0.172  -5.763  1.00  0.00    +0.269 C 
ATOM     15  N   UNL     1     -18.816  -0.639  -6.584  1.00  0.00    -0.354 N 
ATOM     16  O   UNL     1     -17.985   0.621  -4.846  1.00  0.00    -0.268 OA
ATOM     17  C   UNL     1     -20.166  -0.150  -6.508  1.00  0.00    +0.143 C 
ATOM     18  H   UNL     1     -18.520  -1.214  -7.370  1.00  0.00    +0.163 HD
ENDBRANCH   9  14
ENDBRANCH   7   8
ENDBRANCH   1   7
BRANCH   4  19
ATOM     19  N   UNL     1     -11.141   1.465 -11.759  1.00  0.00    -0.308 N 
ATOM     20  C   UNL     1     -11.265   1.943 -13.057  1.00  0.00    +0.323 C 
ATOM     21  O   UNL     1     -12.169   1.655 -13.829  1.00  0.00    -0.248 OA
ATOM     22  N   UNL     1     -10.215   2.802 -13.352  1.00  0.00    -0.308 N 
ATOM     23  H   UNL     1     -10.246   1.608 -11.318  1.00  0.00    +0.171 HD
ATOM     24  H   UNL     1      -9.686   3.136 -12.561  1.00  0.00    +0.171 HD
BRANCH  22  25
ATOM     25  C   UNL     1      -9.927   3.407 -14.593  1.00  0.00    +0.043 A 
ATOM     26  C   UNL     1     -10.765   4.320 -15.229  1.00  0.00    +0.028 A 
ATOM     27  C   UNL     1      -8.729   3.042 -15.223  1.00  0.00    +0.040 A 
ATOM     28  C   UNL     1     -10.408   4.867 -16.466  1.00  0.00    +0.023 A 
ATOM     29  C   UNL     1      -8.354   3.585 -16.470  1.00  0.00    +0.076 A 
ATOM     30  C   UNL     1      -9.209   4.504 -17.083  1.00  0.00    +0.053 A 
ATOM     31 Cl   UNL     1      -8.844   5.225 -18.607  1.00  0.00    -0.084 Cl
BRANCH  29  32
ATOM     32  C   UNL     1      -7.057   3.170 -17.110  1.00  0.00    +0.417 C 
ATOM     33  F   UNL     1      -6.223   4.216 -17.356  1.00  0.00    -0.166 F 
ATOM     34  F   UNL     1      -6.353   2.275 -16.365  1.00  0.00    -0.166 F 
ATOM     35  F   UNL     1      -7.238   2.564 -18.322  1.00  0.00    -0.166 F 
ENDBRANCH  29  32
ENDBRANCH  22  25
ENDBRANCH   4  19
TORSDOF 6
ENDMDL
