MODEL 1
REMARK VINA RESULT:   -10.117      0.000      0.000
REMARK INTER + INTRA:         -17.501
REMARK INTER:                 -15.439
REMARK INTRA:                  -2.062
REMARK UNBOUND:                -2.062
REMARK SMILES COC(=O)c1ccc2c(c1)NC(=O)/C2=C(\Nc1ccc(N(C)C(=O)CN2CCN(C)CC2)cc1)c1ccccc1
REMARK SMILES IDX 17 1 18 2 19 3 20 4 33 5 34 6 16 7 15 9 5 10 6 11 10 12 7 13
REMARK SMILES IDX 9 14 8 15 11 16 14 17 12 18 13 19 3 21 4 22 2 23 1 24 35 25
REMARK SMILES IDX 36 26 40 27 37 28 39 29 38 30 21 31 22 32 23 33 24 34 25 35
REMARK SMILES IDX 26 36 27 37 32 38 28 39 31 40 29 41 30 42
REMARK H PARENT 16 8 11 20
ROOT
ATOM      1  C   UNL     1      -9.888   1.625 -13.381  1.00  0.00    +0.039 A 
ATOM      2  C   UNL     1     -10.991   1.416 -12.542  1.00  0.00    +0.028 A 
ATOM      3  C   UNL     1     -11.150   0.235 -11.799  1.00  0.00    +0.028 A 
ATOM      4  C   UNL     1     -10.215  -0.801 -11.860  1.00  0.00    +0.043 A 
ATOM      5  C   UNL     1      -9.099  -0.579 -12.682  1.00  0.00    +0.028 A 
ATOM      6  C   UNL     1      -8.942   0.607 -13.425  1.00  0.00    +0.028 A 
ENDROOT
BRANCH   1   7
ATOM      7  N   UNL     1      -9.801   2.860 -14.045  1.00  0.00    -0.354 N 
ATOM      8  H   UNL     1     -10.227   3.618 -13.501  1.00  0.00    +0.167 HD
BRANCH   7   9
ATOM      9  C   UNL     1      -9.357   3.284 -15.296  1.00  0.00    +0.059 C 
ATOM     10  C   UNL     1      -9.750   6.632 -19.516  1.00  0.00    +0.062 A 
ATOM     11  C   UNL     1      -8.691   5.717 -19.328  1.00  0.00    +0.016 A 
ATOM     12  C   UNL     1     -10.771   6.722 -18.562  1.00  0.00    +0.042 A 
ATOM     13  C   UNL     1      -8.644   4.884 -18.199  1.00  0.00    +0.012 A 
ATOM     14  C   UNL     1     -10.697   5.888 -17.462  1.00  0.00    +0.050 A 
ATOM     15  C   UNL     1      -9.664   4.962 -17.266  1.00  0.00    +0.013 A 
ATOM     16  N   UNL     1     -11.597   5.856 -16.404  1.00  0.00    -0.321 N 
ATOM     17  C   UNL     1      -9.959   4.285 -15.987  1.00  0.00    +0.073 C 
ATOM     18  C   UNL     1     -11.219   4.932 -15.451  1.00  0.00    +0.258 C 
ATOM     19  O   UNL     1     -11.781   4.695 -14.397  1.00  0.00    -0.269 OA
ATOM     20  H   UNL     1     -12.413   6.442 -16.302  1.00  0.00    +0.170 HD
BRANCH  10  21
ATOM     21  C   UNL     1      -9.826   7.528 -20.701  1.00  0.00    +0.337 C 
ATOM     22  O   UNL     1      -9.682   7.135 -21.848  1.00  0.00    -0.246 OA
BRANCH  21  23
ATOM     23  O   UNL     1     -10.071   8.806 -20.323  1.00  0.00    -0.465 OA
ATOM     24  C   UNL     1      -8.904   9.531 -19.933  1.00  0.00    +0.282 C 
ENDBRANCH  21  23
ENDBRANCH  10  21
BRANCH   9  25
ATOM     25  C   UNL     1      -8.136   2.679 -15.863  1.00  0.00    -0.001 A 
ATOM     26  C   UNL     1      -8.227   1.666 -16.832  1.00  0.00    +0.010 A 
ATOM     27  C   UNL     1      -6.872   3.118 -15.445  1.00  0.00    +0.010 A 
ATOM     28  C   UNL     1      -7.070   1.105 -17.376  1.00  0.00    +0.001 A 
ATOM     29  C   UNL     1      -5.716   2.554 -15.992  1.00  0.00    +0.001 A 
ATOM     30  C   UNL     1      -5.817   1.551 -16.956  1.00  0.00    +0.000 A 
ENDBRANCH   9  25
ENDBRANCH   7   9
ENDBRANCH   1   7
BRANCH   4  31
ATOM     31  N   UNL     1     -10.348  -2.012 -11.079  1.00  0.00    -0.314 N 
ATOM     32  C   UNL     1      -9.308  -2.295 -10.089  1.00  0.00    +0.153 C 
BRANCH  31  33
ATOM     33  C   UNL     1     -11.374  -2.953 -11.322  1.00  0.00    +0.240 C 
ATOM     34  O   UNL     1     -11.539  -3.522 -12.403  1.00  0.00    -0.273 OA
BRANCH  33  35
ATOM     35  C   UNL     1     -12.311  -3.239 -10.123  1.00  0.00    +0.185 C 
BRANCH  35  36
ATOM     36  N   UNL     1     -13.027  -2.034  -9.663  1.00  0.00    -0.292 NA
ATOM     37  C   UNL     1     -14.472  -2.289  -9.518  1.00  0.00    +0.100 C 
ATOM     38  C   UNL     1     -12.479  -1.476  -8.419  1.00  0.00    +0.100 C 
ATOM     39  C   UNL     1     -15.209  -1.309  -8.566  1.00  0.00    +0.099 C 
ATOM     40  C   UNL     1     -13.169  -0.144  -8.012  1.00  0.00    +0.099 C 
ATOM     41  N   UNL     1     -14.588   0.017  -8.405  1.00  0.00    -0.304 NA
ATOM     42  C   UNL     1     -14.695   0.792  -9.643  1.00  0.00    +0.105 C 
ENDBRANCH  35  36
ENDBRANCH  33  35
ENDBRANCH  31  33
ENDBRANCH   4  31
TORSDOF 9
ENDMDL
MODEL 2
REMARK VINA RESULT:    -9.877      1.330      1.587
REMARK INTER + INTRA:         -17.136
REMARK INTER:                 -15.203
REMARK INTRA:                  -1.934
REMARK UNBOUND:                -2.062
REMARK SMILES COC(=O)c1ccc2c(c1)NC(=O)/C2=C(\Nc1ccc(N(C)C(=O)CN2CCN(C)CC2)cc1)c1ccccc1
REMARK SMILES IDX 17 1 18 2 19 3 20 4 33 5 34 6 16 7 15 9 5 10 6 11 10 12 7 13
REMARK SMILES IDX 9 14 8 15 11 16 14 17 12 18 13 19 3 21 4 22 2 23 1 24 35 25
REMARK SMILES IDX 36 26 40 27 37 28 39 29 38 30 21 31 22 32 23 33 24 34 25 35
REMARK SMILES IDX 26 36 27 37 32 38 28 39 31 40 29 41 30 42
REMARK H PARENT 16 8 11 20
ROOT
ATOM      1  C   UNL     1     -11.013   1.206 -12.536  1.00  0.00    +0.039 A 
ATOM      2  C   UNL     1     -11.771   1.205 -11.359  1.00  0.00    +0.028 A 
ATOM      3  C   UNL     1     -11.897   0.061 -10.553  1.00  0.00    +0.028 A 
ATOM      4  C   UNL     1     -11.272  -1.143 -10.887  1.00  0.00    +0.043 A 
ATOM      5  C   UNL     1     -10.492  -1.131 -12.054  1.00  0.00    +0.028 A 
ATOM      6  C   UNL     1     -10.368   0.017 -12.859  1.00  0.00    +0.028 A 
ENDROOT
BRANCH   1   7
ATOM      7  N   UNL     1     -10.915   2.414 -13.246  1.00  0.00    -0.354 N 
ATOM      8  H   UNL     1     -11.575   3.118 -12.897  1.00  0.00    +0.167 HD
BRANCH   7   9
ATOM      9  C   UNL     1     -10.205   2.856 -14.361  1.00  0.00    +0.059 C 
ATOM     10  C   UNL     1      -9.589   6.338 -18.443  1.00  0.00    +0.062 A 
ATOM     11  C   UNL     1      -8.625   5.375 -18.073  1.00  0.00    +0.016 A 
ATOM     12  C   UNL     1     -10.783   6.444 -17.719  1.00  0.00    +0.042 A 
ATOM     13  C   UNL     1      -8.844   4.508 -16.991  1.00  0.00    +0.012 A 
ATOM     14  C   UNL     1     -10.970   5.576 -16.659  1.00  0.00    +0.050 A 
ATOM     15  C   UNL     1     -10.034   4.601 -16.288  1.00  0.00    +0.013 A 
ATOM     16  N   UNL     1     -12.072   5.552 -15.813  1.00  0.00    -0.321 N 
ATOM     17  C   UNL     1     -10.613   3.901 -15.124  1.00  0.00    +0.073 C 
ATOM     18  C   UNL     1     -11.933   4.585 -14.837  1.00  0.00    +0.258 C 
ATOM     19  O   UNL     1     -12.711   4.341 -13.933  1.00  0.00    -0.269 OA
ATOM     20  H   UNL     1     -12.869   6.169 -15.861  1.00  0.00    +0.170 HD
BRANCH  10  21
ATOM     21  C   UNL     1      -9.383   7.271 -19.583  1.00  0.00    +0.337 C 
ATOM     22  O   UNL     1      -9.225   8.474 -19.445  1.00  0.00    -0.246 OA
BRANCH  21  23
ATOM     23  O   UNL     1      -9.399   6.602 -20.762  1.00  0.00    -0.465 OA
ATOM     24  C   UNL     1     -10.099   7.281 -21.806  1.00  0.00    +0.282 C 
ENDBRANCH  21  23
ENDBRANCH  10  21
BRANCH   9  25
ATOM     25  C   UNL     1      -8.915   2.216 -14.684  1.00  0.00    -0.001 A 
ATOM     26  C   UNL     1      -8.836   1.241 -15.691  1.00  0.00    +0.010 A 
ATOM     27  C   UNL     1      -7.752   2.584 -13.993  1.00  0.00    +0.010 A 
ATOM     28  C   UNL     1      -7.612   0.647 -16.004  1.00  0.00    +0.001 A 
ATOM     29  C   UNL     1      -6.528   1.989 -14.309  1.00  0.00    +0.001 A 
ATOM     30  C   UNL     1      -6.460   1.023 -15.313  1.00  0.00    +0.000 A 
ENDBRANCH   9  25
ENDBRANCH   7   9
ENDBRANCH   1   7
BRANCH   4  31
ATOM     31  N   UNL     1     -11.366  -2.322 -10.053  1.00  0.00    -0.314 N 
ATOM     32  C   UNL     1     -10.165  -2.732  -9.324  1.00  0.00    +0.153 C 
BRANCH  31  33
ATOM     33  C   UNL     1     -12.529  -3.123 -10.016  1.00  0.00    +0.240 C 
ATOM     34  O   UNL     1     -12.953  -3.762 -10.982  1.00  0.00    -0.273 OA
BRANCH  33  35
ATOM     35  C   UNL     1     -13.269  -3.158  -8.656  1.00  0.00    +0.185 C 
BRANCH  35  36
ATOM     36  N   UNL     1     -13.847  -1.850  -8.292  1.00  0.00    -0.292 NA
ATOM     37  C   UNL     1     -15.305  -1.944  -8.090  1.00  0.00    +0.100 C 
ATOM     38  C   UNL     1     -13.207  -1.242  -7.118  1.00  0.00    +0.100 C 
ATOM     39  C   UNL     1     -15.911  -0.813  -7.215  1.00  0.00    +0.099 C 
ATOM     40  C   UNL     1     -13.748   0.184  -6.819  1.00  0.00    +0.099 C 
ATOM     41  N   UNL     1     -15.156   0.452  -7.191  1.00  0.00    -0.304 NA
ATOM     42  C   UNL     1     -15.226   1.121  -8.492  1.00  0.00    +0.105 C 
ENDBRANCH  35  36
ENDBRANCH  33  35
ENDBRANCH  31  33
ENDBRANCH   4  31
TORSDOF 9
ENDMDL
MODEL 3
REMARK VINA RESULT:    -9.681      1.827      2.896
REMARK INTER + INTRA:         -16.837
REMARK INTER:                 -15.170
REMARK INTRA:                  -1.667
REMARK UNBOUND:                -2.062
REMARK SMILES COC(=O)c1ccc2c(c1)NC(=O)/C2=C(\Nc1ccc(N(C)C(=O)CN2CCN(C)CC2)cc1)c1ccccc1
REMARK SMILES IDX 17 1 18 2 19 3 20 4 33 5 34 6 16 7 15 9 5 10 6 11 10 12 7 13
REMARK SMILES IDX 9 14 8 15 11 16 14 17 12 18 13 19 3 21 4 22 2 23 1 24 35 25
REMARK SMILES IDX 36 26 40 27 37 28 39 29 38 30 21 31 22 32 23 33 24 34 25 35
REMARK SMILES IDX 26 36 27 37 32 38 28 39 31 40 29 41 30 42
REMARK H PARENT 16 8 11 20
ROOT
ATOM      1  C   UNL     1     -10.460   1.515 -12.992  1.00  0.00    +0.039 A 
ATOM      2  C   UNL     1     -11.483   1.410 -12.042  1.00  0.00    +0.028 A 
ATOM      3  C   UNL     1     -11.722   0.223 -11.329  1.00  0.00    +0.028 A 
ATOM      4  C   UNL     1     -10.950  -0.923 -11.535  1.00  0.00    +0.043 A 
ATOM      5  C   UNL     1      -9.909  -0.807 -12.470  1.00  0.00    +0.028 A 
ATOM      6  C   UNL     1      -9.672   0.385 -13.181  1.00  0.00    +0.028 A 
ENDROOT
BRANCH   1   7
ATOM      7  N   UNL     1     -10.276   2.760 -13.616  1.00  0.00    -0.354 N 
ATOM      8  H   UNL     1     -10.756   3.514 -13.114  1.00  0.00    +0.167 HD
BRANCH   7   9
ATOM      9  C   UNL     1      -9.676   3.201 -14.794  1.00  0.00    +0.059 C 
ATOM     10  C   UNL     1      -9.508   6.625 -18.967  1.00  0.00    +0.062 A 
ATOM     11  C   UNL     1      -8.490   5.694 -18.666  1.00  0.00    +0.016 A 
ATOM     12  C   UNL     1     -10.639   6.712 -18.146  1.00  0.00    +0.042 A 
ATOM     13  C   UNL     1      -8.592   4.841 -17.557  1.00  0.00    +0.012 A 
ATOM     14  C   UNL     1     -10.710   5.858 -17.061  1.00  0.00    +0.050 A 
ATOM     15  C   UNL     1      -9.719   4.915 -16.756  1.00  0.00    +0.013 A 
ATOM     16  N   UNL     1     -11.735   5.819 -16.123  1.00  0.00    -0.321 N 
ATOM     17  C   UNL     1     -10.177   4.220 -15.536  1.00  0.00    +0.073 C 
ATOM     18  C   UNL     1     -11.487   4.874 -15.148  1.00  0.00    +0.258 C 
ATOM     19  O   UNL     1     -12.178   4.625 -14.176  1.00  0.00    -0.269 OA
ATOM     20  H   UNL     1     -12.551   6.413 -16.111  1.00  0.00    +0.170 HD
BRANCH  10  21
ATOM     21  C   UNL     1      -9.427   7.542 -20.135  1.00  0.00    +0.337 C 
ATOM     22  O   UNL     1      -9.382   8.758 -20.031  1.00  0.00    -0.246 OA
BRANCH  21  23
ATOM     23  O   UNL     1      -9.413   6.844 -21.297  1.00  0.00    -0.465 OA
ATOM     24  C   UNL     1     -10.482   7.172 -22.185  1.00  0.00    +0.282 C 
ENDBRANCH  21  23
ENDBRANCH  10  21
BRANCH   9  25
ATOM     25  C   UNL     1      -8.401   2.590 -15.217  1.00  0.00    -0.001 A 
ATOM     26  C   UNL     1      -7.200   2.930 -14.573  1.00  0.00    +0.010 A 
ATOM     27  C   UNL     1      -8.378   1.654 -16.261  1.00  0.00    +0.010 A 
ATOM     28  C   UNL     1      -5.997   2.340 -14.966  1.00  0.00    +0.001 A 
ATOM     29  C   UNL     1      -7.173   1.066 -16.651  1.00  0.00    +0.001 A 
ATOM     30  C   UNL     1      -5.986   1.408 -16.004  1.00  0.00    +0.000 A 
ENDBRANCH   9  25
ENDBRANCH   7   9
ENDBRANCH   1   7
BRANCH   4  31
ATOM     31  N   UNL     1     -11.163  -2.144 -10.789  1.00  0.00    -0.314 N 
ATOM     32  C   UNL     1     -10.519  -2.256  -9.479  1.00  0.00    +0.153 C 
BRANCH  31  33
ATOM     33  C   UNL     1     -11.869  -3.241 -11.331  1.00  0.00    +0.240 C 
ATOM     34  O   UNL     1     -11.601  -3.760 -12.417  1.00  0.00    -0.273 OA
BRANCH  33  35
ATOM     35  C   UNL     1     -13.037  -3.774 -10.464  1.00  0.00    +0.185 C 
BRANCH  35  36
ATOM     36  N   UNL     1     -12.678  -4.999  -9.723  1.00  0.00    -0.292 NA
ATOM     37  C   UNL     1     -13.148  -4.938  -8.326  1.00  0.00    +0.100 C 
ATOM     38  C   UNL     1     -13.158  -6.227 -10.370  1.00  0.00    +0.100 C 
ATOM     39  C   UNL     1     -13.304  -6.321  -7.637  1.00  0.00    +0.099 C 
ATOM     40  C   UNL     1     -12.673  -7.510  -9.640  1.00  0.00    +0.099 C 
ATOM     41  N   UNL     1     -12.466  -7.405  -8.178  1.00  0.00    -0.304 NA
ATOM     42  C   UNL     1     -11.053  -7.167  -7.873  1.00  0.00    +0.105 C 
ENDBRANCH  35  36
ENDBRANCH  33  35
ENDBRANCH  31  33
ENDBRANCH   4  31
TORSDOF 9
ENDMDL
MODEL 4
REMARK VINA RESULT:    -9.556      1.558      1.917
REMARK INTER + INTRA:         -16.646
REMARK INTER:                 -14.720
REMARK INTRA:                  -1.926
REMARK UNBOUND:                -2.062
REMARK SMILES COC(=O)c1ccc2c(c1)NC(=O)/C2=C(\Nc1ccc(N(C)C(=O)CN2CCN(C)CC2)cc1)c1ccccc1
REMARK SMILES IDX 17 1 18 2 19 3 20 4 33 5 34 6 16 7 15 9 5 10 6 11 10 12 7 13
REMARK SMILES IDX 9 14 8 15 11 16 14 17 12 18 13 19 3 21 4 22 2 23 1 24 35 25
REMARK SMILES IDX 36 26 40 27 37 28 39 29 38 30 21 31 22 32 23 33 24 34 25 35
REMARK SMILES IDX 26 36 27 37 32 38 28 39 31 40 29 41 30 42
REMARK H PARENT 16 8 11 20
ROOT
ATOM      1  C   UNL     1     -10.943   1.234 -12.537  1.00  0.00    +0.039 A 
ATOM      2  C   UNL     1     -11.815   1.197 -11.442  1.00  0.00    +0.028 A 
ATOM      3  C   UNL     1     -12.005   0.034 -10.677  1.00  0.00    +0.028 A 
ATOM      4  C   UNL     1     -11.333  -1.155 -10.973  1.00  0.00    +0.043 A 
ATOM      5  C   UNL     1     -10.441  -1.108 -12.056  1.00  0.00    +0.028 A 
ATOM      6  C   UNL     1     -10.253   0.060 -12.819  1.00  0.00    +0.028 A 
ENDROOT
BRANCH   1   7
ATOM      7  N   UNL     1     -10.790   2.459 -13.207  1.00  0.00    -0.354 N 
ATOM      8  H   UNL     1     -11.397   3.188 -12.814  1.00  0.00    +0.167 HD
BRANCH   7   9
ATOM      9  C   UNL     1     -10.085   2.898 -14.325  1.00  0.00    +0.059 C 
ATOM     10  C   UNL     1      -9.495   6.358 -18.430  1.00  0.00    +0.062 A 
ATOM     11  C   UNL     1      -8.526   5.402 -18.056  1.00  0.00    +0.016 A 
ATOM     12  C   UNL     1     -10.689   6.462 -17.705  1.00  0.00    +0.042 A 
ATOM     13  C   UNL     1      -8.738   4.541 -16.968  1.00  0.00    +0.012 A 
ATOM     14  C   UNL     1     -10.869   5.599 -16.640  1.00  0.00    +0.050 A 
ATOM     15  C   UNL     1      -9.927   4.632 -16.264  1.00  0.00    +0.013 A 
ATOM     16  N   UNL     1     -11.970   5.574 -15.792  1.00  0.00    -0.321 N 
ATOM     17  C   UNL     1     -10.500   3.936 -15.094  1.00  0.00    +0.073 C 
ATOM     18  C   UNL     1     -11.824   4.614 -14.810  1.00  0.00    +0.258 C 
ATOM     19  O   UNL     1     -12.599   4.371 -13.903  1.00  0.00    -0.269 OA
ATOM     20  H   UNL     1     -12.771   6.186 -15.842  1.00  0.00    +0.170 HD
BRANCH  10  21
ATOM     21  C   UNL     1      -9.298   7.285 -19.577  1.00  0.00    +0.337 C 
ATOM     22  O   UNL     1      -9.128   8.487 -19.446  1.00  0.00    -0.246 OA
BRANCH  21  23
ATOM     23  O   UNL     1      -9.334   6.611 -20.752  1.00  0.00    -0.465 OA
ATOM     24  C   UNL     1     -10.090   7.265 -21.773  1.00  0.00    +0.282 C 
ENDBRANCH  21  23
ENDBRANCH  10  21
BRANCH   9  25
ATOM     25  C   UNL     1      -8.792   2.263 -14.647  1.00  0.00    -0.001 A 
ATOM     26  C   UNL     1      -8.709   1.279 -15.645  1.00  0.00    +0.010 A 
ATOM     27  C   UNL     1      -7.629   2.646 -13.963  1.00  0.00    +0.010 A 
ATOM     28  C   UNL     1      -7.482   0.691 -15.956  1.00  0.00    +0.001 A 
ATOM     29  C   UNL     1      -6.403   2.055 -14.277  1.00  0.00    +0.001 A 
ATOM     30  C   UNL     1      -6.330   1.081 -15.272  1.00  0.00    +0.000 A 
ENDBRANCH   9  25
ENDBRANCH   7   9
ENDBRANCH   1   7
BRANCH   4  31
ATOM     31  N   UNL     1     -11.494  -2.354 -10.179  1.00  0.00    -0.314 N 
ATOM     32  C   UNL     1     -12.352  -3.411 -10.717  1.00  0.00    +0.153 C 
BRANCH  31  33
ATOM     33  C   UNL     1     -10.944  -2.474  -8.883  1.00  0.00    +0.240 C 
ATOM     34  O   UNL     1      -9.753  -2.289  -8.624  1.00  0.00    -0.273 OA
BRANCH  33  35
ATOM     35  C   UNL     1     -11.946  -2.864  -7.769  1.00  0.00    +0.185 C 
BRANCH  35  36
ATOM     36  N   UNL     1     -12.952  -1.813  -7.518  1.00  0.00    -0.292 NA
ATOM     37  C   UNL     1     -14.013  -2.290  -6.611  1.00  0.00    +0.100 C 
ATOM     38  C   UNL     1     -12.368  -0.565  -7.011  1.00  0.00    +0.100 C 
ATOM     39  C   UNL     1     -14.789  -1.163  -5.877  1.00  0.00    +0.099 C 
ATOM     40  C   UNL     1     -13.424   0.567  -6.863  1.00  0.00    +0.099 C 
ATOM     41  N   UNL     1     -14.809   0.146  -6.552  1.00  0.00    -0.304 NA
ATOM     42  C   UNL     1     -15.616   0.085  -7.773  1.00  0.00    +0.105 C 
ENDBRANCH  35  36
ENDBRANCH  33  35
ENDBRANCH  31  33
ENDBRANCH   4  31
TORSDOF 9
ENDMDL
MODEL 5
REMARK VINA RESULT:    -9.411      2.829     10.153
REMARK INTER + INTRA:         -16.425
REMARK INTER:                 -14.051
REMARK INTRA:                  -2.374
REMARK UNBOUND:                -2.062
REMARK SMILES COC(=O)c1ccc2c(c1)NC(=O)/C2=C(\Nc1ccc(N(C)C(=O)CN2CCN(C)CC2)cc1)c1ccccc1
REMARK SMILES IDX 17 1 18 2 19 3 20 4 33 5 34 6 16 7 15 9 5 10 6 11 10 12 7 13
REMARK SMILES IDX 9 14 8 15 11 16 14 17 12 18 13 19 3 21 4 22 2 23 1 24 35 25
REMARK SMILES IDX 36 26 40 27 37 28 39 29 38 30 21 31 22 32 23 33 24 34 25 35
REMARK SMILES IDX 26 36 27 37 32 38 28 39 31 40 29 41 30 42
REMARK H PARENT 16 8 11 20
ROOT
ATOM      1  C   UNL     1      -8.829   0.524 -13.908  1.00  0.00    +0.039 A 
ATOM      2  C   UNL     1      -7.919   1.474 -13.425  1.00  0.00    +0.028 A 
ATOM      3  C   UNL     1      -6.940   2.055 -14.247  1.00  0.00    +0.028 A 
ATOM      4  C   UNL     1      -6.818   1.712 -15.596  1.00  0.00    +0.043 A 
ATOM      5  C   UNL     1      -7.747   0.779 -16.083  1.00  0.00    +0.028 A 
ATOM      6  C   UNL     1      -8.728   0.200 -15.255  1.00  0.00    +0.028 A 
ENDROOT
BRANCH   1   7
ATOM      7  N   UNL     1      -9.798   0.038 -13.014  1.00  0.00    -0.354 N 
ATOM      8  H   UNL     1      -9.613  -0.933 -12.740  1.00  0.00    +0.167 HD
BRANCH   7   9
ATOM      9  C   UNL     1     -10.991   0.524 -12.482  1.00  0.00    +0.059 C 
ATOM     10  C   UNL     1     -14.768   0.459  -8.622  1.00  0.00    +0.062 A 
ATOM     11  C   UNL     1     -14.700   1.428  -9.647  1.00  0.00    +0.016 A 
ATOM     12  C   UNL     1     -13.803  -0.554  -8.556  1.00  0.00    +0.042 A 
ATOM     13  C   UNL     1     -13.682   1.394 -10.612  1.00  0.00    +0.012 A 
ATOM     14  C   UNL     1     -12.813  -0.561  -9.521  1.00  0.00    +0.050 A 
ATOM     15  C   UNL     1     -12.739   0.381 -10.556  1.00  0.00    +0.013 A 
ATOM     16  N   UNL     1     -11.761  -1.465  -9.599  1.00  0.00    -0.321 N 
ATOM     17  C   UNL     1     -11.550   0.020 -11.353  1.00  0.00    +0.073 C 
ATOM     18  C   UNL     1     -10.930  -1.177 -10.663  1.00  0.00    +0.258 C 
ATOM     19  O   UNL     1      -9.909  -1.763 -10.975  1.00  0.00    -0.269 OA
ATOM     20  H   UNL     1     -11.581  -2.223  -8.957  1.00  0.00    +0.170 HD
BRANCH  10  21
ATOM     21  C   UNL     1     -15.834   0.471  -7.585  1.00  0.00    +0.337 C 
ATOM     22  O   UNL     1     -16.887   1.075  -7.714  1.00  0.00    -0.246 OA
BRANCH  21  23
ATOM     23  O   UNL     1     -15.468  -0.268  -6.510  1.00  0.00    -0.465 OA
ATOM     24  C   UNL     1     -16.531  -1.037  -5.944  1.00  0.00    +0.282 C 
ENDBRANCH  21  23
ENDBRANCH  10  21
BRANCH   9  25
ATOM     25  C   UNL     1     -11.636   1.686 -13.123  1.00  0.00    -0.001 A 
ATOM     26  C   UNL     1     -12.779   1.516 -13.921  1.00  0.00    +0.010 A 
ATOM     27  C   UNL     1     -11.118   2.975 -12.933  1.00  0.00    +0.010 A 
ATOM     28  C   UNL     1     -13.395   2.620 -14.515  1.00  0.00    +0.001 A 
ATOM     29  C   UNL     1     -11.736   4.077 -13.529  1.00  0.00    +0.001 A 
ATOM     30  C   UNL     1     -12.873   3.898 -14.317  1.00  0.00    +0.000 A 
ENDBRANCH   9  25
ENDBRANCH   7   9
ENDBRANCH   1   7
BRANCH   4  31
ATOM     31  N   UNL     1      -5.835   2.323 -16.465  1.00  0.00    -0.314 N 
ATOM     32  C   UNL     1      -4.611   1.568 -16.735  1.00  0.00    +0.153 C 
BRANCH  31  33
ATOM     33  C   UNL     1      -5.982   3.640 -16.954  1.00  0.00    +0.240 C 
ATOM     34  O   UNL     1      -5.326   4.600 -16.545  1.00  0.00    -0.273 OA
BRANCH  33  35
ATOM     35  C   UNL     1      -7.045   3.821 -18.066  1.00  0.00    +0.185 C 
BRANCH  35  36
ATOM     36  N   UNL     1      -8.071   4.821 -17.712  1.00  0.00    -0.292 NA
ATOM     37  C   UNL     1      -8.422   5.665 -18.869  1.00  0.00    +0.100 C 
ATOM     38  C   UNL     1      -9.280   4.225 -17.129  1.00  0.00    +0.100 C 
ATOM     39  C   UNL     1      -9.810   6.353 -18.770  1.00  0.00    +0.099 C 
ATOM     40  C   UNL     1     -10.301   5.297 -16.655  1.00  0.00    +0.099 C 
ATOM     41  N   UNL     1     -10.319   6.574 -17.405  1.00  0.00    -0.304 NA
ATOM     42  C   UNL     1      -9.522   7.589 -16.713  1.00  0.00    +0.105 C 
ENDBRANCH  35  36
ENDBRANCH  33  35
ENDBRANCH  31  33
ENDBRANCH   4  31
TORSDOF 9
ENDMDL
MODEL 6
REMARK VINA RESULT:    -9.349      2.196      3.481
REMARK INTER + INTRA:         -16.329
REMARK INTER:                 -14.869
REMARK INTRA:                  -1.460
REMARK UNBOUND:                -2.062
REMARK SMILES COC(=O)c1ccc2c(c1)NC(=O)/C2=C(\Nc1ccc(N(C)C(=O)CN2CCN(C)CC2)cc1)c1ccccc1
REMARK SMILES IDX 17 1 18 2 19 3 20 4 33 5 34 6 16 7 15 9 5 10 6 11 10 12 7 13
REMARK SMILES IDX 9 14 8 15 11 16 14 17 12 18 13 19 3 21 4 22 2 23 1 24 35 25
REMARK SMILES IDX 36 26 40 27 37 28 39 29 38 30 21 31 22 32 23 33 24 34 25 35
REMARK SMILES IDX 26 36 27 37 32 38 28 39 31 40 29 41 30 42
REMARK H PARENT 16 8 11 20
ROOT
ATOM      1  C   UNL     1     -12.704   1.856 -11.913  1.00  0.00    +0.039 A 
ATOM      2  C   UNL     1     -13.970   1.790 -11.318  1.00  0.00    +0.028 A 
ATOM      3  C   UNL     1     -14.250   0.919 -10.252  1.00  0.00    +0.028 A 
ATOM      4  C   UNL     1     -13.275   0.065  -9.729  1.00  0.00    +0.043 A 
ATOM      5  C   UNL     1     -12.001   0.151 -10.311  1.00  0.00    +0.028 A 
ATOM      6  C   UNL     1     -11.725   1.026 -11.379  1.00  0.00    +0.028 A 
ENDROOT
BRANCH   1   7
ATOM      7  N   UNL     1     -12.517   2.793 -12.943  1.00  0.00    -0.354 N 
ATOM      8  H   UNL     1     -13.330   3.408 -13.053  1.00  0.00    +0.167 HD
BRANCH   7   9
ATOM      9  C   UNL     1     -11.535   3.029 -13.904  1.00  0.00    +0.059 C 
ATOM     10  C   UNL     1      -9.625   5.948 -18.027  1.00  0.00    +0.062 A 
ATOM     11  C   UNL     1      -8.894   4.935 -17.369  1.00  0.00    +0.016 A 
ATOM     12  C   UNL     1     -10.922   6.260 -17.602  1.00  0.00    +0.042 A 
ATOM     13  C   UNL     1      -9.447   4.223 -16.293  1.00  0.00    +0.012 A 
ATOM     14  C   UNL     1     -11.440   5.540 -16.540  1.00  0.00    +0.050 A 
ATOM     15  C   UNL     1     -10.737   4.520 -15.886  1.00  0.00    +0.013 A 
ATOM     16  N   UNL     1     -12.690   5.728 -15.965  1.00  0.00    -0.321 N 
ATOM     17  C   UNL     1     -11.635   4.020 -14.826  1.00  0.00    +0.073 C 
ATOM     18  C   UNL     1     -12.887   4.868 -14.903  1.00  0.00    +0.258 C 
ATOM     19  O   UNL     1     -13.865   4.810 -14.179  1.00  0.00    -0.269 OA
ATOM     20  H   UNL     1     -13.374   6.417 -16.242  1.00  0.00    +0.170 HD
BRANCH  10  21
ATOM     21  C   UNL     1      -9.064   6.720 -19.168  1.00  0.00    +0.337 C 
ATOM     22  O   UNL     1      -8.135   6.323 -19.854  1.00  0.00    -0.246 OA
BRANCH  21  23
ATOM     23  O   UNL     1      -9.723   7.894 -19.325  1.00  0.00    -0.465 OA
ATOM     24  C   UNL     1     -10.031   8.210 -20.684  1.00  0.00    +0.282 C 
ENDBRANCH  21  23
ENDBRANCH  10  21
BRANCH   9  25
ATOM     25  C   UNL     1     -10.299   2.224 -13.873  1.00  0.00    -0.001 A 
ATOM     26  C   UNL     1      -9.135   2.729 -13.271  1.00  0.00    +0.010 A 
ATOM     27  C   UNL     1     -10.279   0.941 -14.437  1.00  0.00    +0.010 A 
ATOM     28  C   UNL     1      -7.971   1.959 -13.231  1.00  0.00    +0.001 A 
ATOM     29  C   UNL     1      -9.112   0.173 -14.395  1.00  0.00    +0.001 A 
ATOM     30  C   UNL     1      -7.962   0.682 -13.792  1.00  0.00    +0.000 A 
ENDBRANCH   9  25
ENDBRANCH   7   9
ENDBRANCH   1   7
BRANCH   4  31
ATOM     31  N   UNL     1     -13.538  -0.817  -8.612  1.00  0.00    -0.314 N 
ATOM     32  C   UNL     1     -12.733  -0.633  -7.403  1.00  0.00    +0.153 C 
BRANCH  31  33
ATOM     33  C   UNL     1     -14.453  -1.890  -8.702  1.00  0.00    +0.240 C 
ATOM     34  O   UNL     1     -14.776  -2.427  -9.764  1.00  0.00    -0.273 OA
BRANCH  33  35
ATOM     35  C   UNL     1     -15.048  -2.370  -7.356  1.00  0.00    +0.185 C 
BRANCH  35  36
ATOM     36  N   UNL     1     -16.435  -1.908  -7.153  1.00  0.00    -0.292 NA
ATOM     37  C   UNL     1     -17.147  -2.755  -6.177  1.00  0.00    +0.100 C 
ATOM     38  C   UNL     1     -16.521  -0.495  -6.762  1.00  0.00    +0.100 C 
ATOM     39  C   UNL     1     -18.371  -2.077  -5.505  1.00  0.00    +0.099 C 
ATOM     40  C   UNL     1     -17.989   0.006  -6.666  1.00  0.00    +0.099 C 
ATOM     41  N   UNL     1     -19.009  -0.996  -6.277  1.00  0.00    -0.304 NA
ATOM     42  C   UNL     1     -19.680  -1.534  -7.462  1.00  0.00    +0.105 C 
ENDBRANCH  35  36
ENDBRANCH  33  35
ENDBRANCH  31  33
ENDBRANCH   4  31
TORSDOF 9
ENDMDL
MODEL 7
REMARK VINA RESULT:    -9.155      4.321      7.934
REMARK INTER + INTRA:         -16.034
REMARK INTER:                 -14.062
REMARK INTRA:                  -1.973
REMARK UNBOUND:                -2.062
REMARK SMILES COC(=O)c1ccc2c(c1)NC(=O)/C2=C(\Nc1ccc(N(C)C(=O)CN2CCN(C)CC2)cc1)c1ccccc1
REMARK SMILES IDX 17 1 18 2 19 3 20 4 33 5 34 6 16 7 15 9 5 10 6 11 10 12 7 13
REMARK SMILES IDX 9 14 8 15 11 16 14 17 12 18 13 19 3 21 4 22 2 23 1 24 35 25
REMARK SMILES IDX 36 26 40 27 37 28 39 29 38 30 21 31 22 32 23 33 24 34 25 35
REMARK SMILES IDX 26 36 27 37 32 38 28 39 31 40 29 41 30 42
REMARK H PARENT 16 8 11 20
ROOT
ATOM      1  C   UNL     1      -6.204   0.330 -14.658  1.00  0.00    +0.039 A 
ATOM      2  C   UNL     1      -6.356  -0.243 -15.926  1.00  0.00    +0.028 A 
ATOM      3  C   UNL     1      -5.964  -1.564 -16.201  1.00  0.00    +0.028 A 
ATOM      4  C   UNL     1      -5.395  -2.378 -15.218  1.00  0.00    +0.043 A 
ATOM      5  C   UNL     1      -5.267  -1.809 -13.942  1.00  0.00    +0.028 A 
ATOM      6  C   UNL     1      -5.662  -0.485 -13.671  1.00  0.00    +0.028 A 
ENDROOT
BRANCH   1   7
ATOM      7  N   UNL     1      -6.670   1.643 -14.477  1.00  0.00    -0.354 N 
ATOM      8  H   UNL     1      -6.188   2.118 -13.705  1.00  0.00    +0.167 HD
BRANCH   7   9
ATOM      9  C   UNL     1      -7.684   2.422 -15.031  1.00  0.00    +0.059 C 
ATOM     10  C   UNL     1      -9.389   5.907 -18.789  1.00  0.00    +0.062 A 
ATOM     11  C   UNL     1     -10.240   5.255 -17.870  1.00  0.00    +0.016 A 
ATOM     12  C   UNL     1      -8.013   5.645 -18.772  1.00  0.00    +0.042 A 
ATOM     13  C   UNL     1      -9.731   4.349 -16.926  1.00  0.00    +0.012 A 
ATOM     14  C   UNL     1      -7.542   4.749 -17.830  1.00  0.00    +0.050 A 
ATOM     15  C   UNL     1      -8.368   4.106 -16.898  1.00  0.00    +0.013 A 
ATOM     16  N   UNL     1      -6.221   4.345 -17.682  1.00  0.00    -0.321 N 
ATOM     17  C   UNL     1      -7.481   3.244 -16.092  1.00  0.00    +0.073 C 
ATOM     18  C   UNL     1      -6.091   3.416 -16.669  1.00  0.00    +0.258 C 
ATOM     19  O   UNL     1      -5.070   2.851 -16.320  1.00  0.00    -0.269 OA
ATOM     20  H   UNL     1      -5.442   4.648 -18.247  1.00  0.00    +0.170 HD
BRANCH  10  21
ATOM     21  C   UNL     1      -9.899   6.870 -19.801  1.00  0.00    +0.337 C 
ATOM     22  O   UNL     1     -10.505   7.889 -19.510  1.00  0.00    -0.246 OA
BRANCH  21  23
ATOM     23  O   UNL     1      -9.598   6.456 -21.056  1.00  0.00    -0.465 OA
ATOM     24  C   UNL     1      -9.981   7.376 -22.079  1.00  0.00    +0.282 C 
ENDBRANCH  21  23
ENDBRANCH  10  21
BRANCH   9  25
ATOM     25  C   UNL     1      -9.054   2.293 -14.498  1.00  0.00    -0.001 A 
ATOM     26  C   UNL     1      -9.615   3.319 -13.720  1.00  0.00    +0.010 A 
ATOM     27  C   UNL     1      -9.813   1.148 -14.774  1.00  0.00    +0.010 A 
ATOM     28  C   UNL     1     -10.916   3.200 -13.229  1.00  0.00    +0.001 A 
ATOM     29  C   UNL     1     -11.115   1.032 -14.281  1.00  0.00    +0.001 A 
ATOM     30  C   UNL     1     -11.665   2.057 -13.511  1.00  0.00    +0.000 A 
ENDBRANCH   9  25
ENDBRANCH   7   9
ENDBRANCH   1   7
BRANCH   4  31
ATOM     31  N   UNL     1      -5.013  -3.750 -15.475  1.00  0.00    -0.314 N 
ATOM     32  C   UNL     1      -5.898  -4.803 -14.974  1.00  0.00    +0.153 C 
BRANCH  31  33
ATOM     33  C   UNL     1      -3.784  -4.084 -16.087  1.00  0.00    +0.240 C 
ATOM     34  O   UNL     1      -3.626  -5.066 -16.816  1.00  0.00    -0.273 OA
BRANCH  33  35
ATOM     35  C   UNL     1      -2.608  -3.124 -15.785  1.00  0.00    +0.185 C 
BRANCH  35  36
ATOM     36  N   UNL     1      -2.370  -2.158 -16.875  1.00  0.00    -0.292 NA
ATOM     37  C   UNL     1      -2.276  -0.779 -16.362  1.00  0.00    +0.100 C 
ATOM     38  C   UNL     1      -1.189  -2.484 -17.686  1.00  0.00    +0.100 C 
ATOM     39  C   UNL     1      -1.521   0.207 -17.293  1.00  0.00    +0.099 C 
ATOM     40  C   UNL     1      -1.019  -1.526 -18.898  1.00  0.00    +0.099 C 
ATOM     41  N   UNL     1      -1.515  -0.141 -18.725  1.00  0.00    -0.304 NA
ATOM     42  C   UNL     1      -2.856   0.002 -19.297  1.00  0.00    +0.105 C 
ENDBRANCH  35  36
ENDBRANCH  33  35
ENDBRANCH  31  33
ENDBRANCH   4  31
TORSDOF 9
ENDMDL
MODEL 8
REMARK VINA RESULT:    -9.107      1.965      3.469
REMARK INTER + INTRA:         -15.961
REMARK INTER:                 -14.061
REMARK INTRA:                  -1.900
REMARK UNBOUND:                -2.062
REMARK SMILES COC(=O)c1ccc2c(c1)NC(=O)/C2=C(\Nc1ccc(N(C)C(=O)CN2CCN(C)CC2)cc1)c1ccccc1
REMARK SMILES IDX 17 1 18 2 19 3 20 4 33 5 34 6 16 7 15 9 5 10 6 11 10 12 7 13
REMARK SMILES IDX 9 14 8 15 11 16 14 17 12 18 13 19 3 21 4 22 2 23 1 24 35 25
REMARK SMILES IDX 36 26 40 27 37 28 39 29 38 30 21 31 22 32 23 33 24 34 25 35
REMARK SMILES IDX 26 36 27 37 32 38 28 39 31 40 29 41 30 42
REMARK H PARENT 16 8 11 20
ROOT
ATOM      1  C   UNL     1     -12.689   1.855 -11.868  1.00  0.00    +0.039 A 
ATOM      2  C   UNL     1     -13.975   1.775 -11.319  1.00  0.00    +0.028 A 
ATOM      3  C   UNL     1     -14.304   0.846 -10.318  1.00  0.00    +0.028 A 
ATOM      4  C   UNL     1     -13.360  -0.054  -9.815  1.00  0.00    +0.043 A 
ATOM      5  C   UNL     1     -12.066   0.046 -10.349  1.00  0.00    +0.028 A 
ATOM      6  C   UNL     1     -11.741   0.979 -11.352  1.00  0.00    +0.028 A 
ENDROOT
BRANCH   1   7
ATOM      7  N   UNL     1     -12.453   2.849 -12.832  1.00  0.00    -0.354 N 
ATOM      8  H   UNL     1     -13.198   3.554 -12.845  1.00  0.00    +0.167 HD
BRANCH   7   9
ATOM      9  C   UNL     1     -11.504   3.058 -13.830  1.00  0.00    +0.059 C 
ATOM     10  C   UNL     1      -9.717   5.875 -18.078  1.00  0.00    +0.062 A 
ATOM     11  C   UNL     1      -8.969   4.872 -17.423  1.00  0.00    +0.016 A 
ATOM     12  C   UNL     1     -10.997   6.205 -17.616  1.00  0.00    +0.042 A 
ATOM     13  C   UNL     1      -9.490   4.186 -16.314  1.00  0.00    +0.012 A 
ATOM     14  C   UNL     1     -11.482   5.511 -16.522  1.00  0.00    +0.050 A 
ATOM     15  C   UNL     1     -10.764   4.501 -15.870  1.00  0.00    +0.013 A 
ATOM     16  N   UNL     1     -12.711   5.720 -15.909  1.00  0.00    -0.321 N 
ATOM     17  C   UNL     1     -11.629   4.029 -14.770  1.00  0.00    +0.073 C 
ATOM     18  C   UNL     1     -12.878   4.884 -14.823  1.00  0.00    +0.258 C 
ATOM     19  O   UNL     1     -13.830   4.848 -14.065  1.00  0.00    -0.269 OA
ATOM     20  H   UNL     1     -13.400   6.407 -16.178  1.00  0.00    +0.170 HD
BRANCH  10  21
ATOM     21  C   UNL     1      -9.191   6.619 -19.253  1.00  0.00    +0.337 C 
ATOM     22  O   UNL     1      -8.201   6.270 -19.879  1.00  0.00    -0.246 OA
BRANCH  21  23
ATOM     23  O   UNL     1      -9.953   7.707 -19.516  1.00  0.00    -0.465 OA
ATOM     24  C   UNL     1      -9.231   8.940 -19.499  1.00  0.00    +0.282 C 
ENDBRANCH  21  23
ENDBRANCH  10  21
BRANCH   9  25
ATOM     25  C   UNL     1     -10.272   2.246 -13.823  1.00  0.00    -0.001 A 
ATOM     26  C   UNL     1     -10.257   0.968 -14.407  1.00  0.00    +0.010 A 
ATOM     27  C   UNL     1      -9.099   2.747 -13.242  1.00  0.00    +0.010 A 
ATOM     28  C   UNL     1      -9.086   0.208 -14.411  1.00  0.00    +0.001 A 
ATOM     29  C   UNL     1      -7.929   1.984 -13.248  1.00  0.00    +0.001 A 
ATOM     30  C   UNL     1      -7.924   0.717 -13.833  1.00  0.00    +0.000 A 
ENDBRANCH   9  25
ENDBRANCH   7   9
ENDBRANCH   1   7
BRANCH   4  31
ATOM     31  N   UNL     1     -13.673  -0.996  -8.763  1.00  0.00    -0.314 N 
ATOM     32  C   UNL     1     -13.992  -0.452  -7.442  1.00  0.00    +0.153 C 
BRANCH  31  33
ATOM     33  C   UNL     1     -13.572  -2.393  -8.952  1.00  0.00    +0.240 C 
ATOM     34  O   UNL     1     -14.130  -3.002  -9.867  1.00  0.00    -0.273 OA
BRANCH  33  35
ATOM     35  C   UNL     1     -12.697  -3.142  -7.918  1.00  0.00    +0.185 C 
BRANCH  35  36
ATOM     36  N   UNL     1     -11.274  -2.761  -7.997  1.00  0.00    -0.292 NA
ATOM     37  C   UNL     1     -10.507  -3.303  -6.860  1.00  0.00    +0.100 C 
ATOM     38  C   UNL     1     -10.644  -3.145  -9.268  1.00  0.00    +0.100 C 
ATOM     39  C   UNL     1      -8.980  -3.425  -7.110  1.00  0.00    +0.099 C 
ATOM     40  C   UNL     1      -9.180  -2.634  -9.382  1.00  0.00    +0.099 C 
ATOM     41  N   UNL     1      -8.420  -2.507  -8.117  1.00  0.00    -0.304 NA
ATOM     42  C   UNL     1      -8.453  -1.126  -7.632  1.00  0.00    +0.105 C 
ENDBRANCH  35  36
ENDBRANCH  33  35
ENDBRANCH  31  33
ENDBRANCH   4  31
TORSDOF 9
ENDMDL
MODEL 9
REMARK VINA RESULT:    -8.955      1.987      4.096
REMARK INTER + INTRA:         -15.728
REMARK INTER:                 -14.010
REMARK INTRA:                  -1.718
REMARK UNBOUND:                -2.062
REMARK SMILES COC(=O)c1ccc2c(c1)NC(=O)/C2=C(\Nc1ccc(N(C)C(=O)CN2CCN(C)CC2)cc1)c1ccccc1
REMARK SMILES IDX 17 1 18 2 19 3 20 4 33 5 34 6 16 7 15 9 5 10 6 11 10 12 7 13
REMARK SMILES IDX 9 14 8 15 11 16 14 17 12 18 13 19 3 21 4 22 2 23 1 24 35 25
REMARK SMILES IDX 36 26 40 27 37 28 39 29 38 30 21 31 22 32 23 33 24 34 25 35
REMARK SMILES IDX 26 36 27 37 32 38 28 39 31 40 29 41 30 42
REMARK H PARENT 16 8 11 20
ROOT
ATOM      1  C   UNL     1     -10.936   1.281 -12.524  1.00  0.00    +0.039 A 
ATOM      2  C   UNL     1     -10.340   0.149 -13.093  1.00  0.00    +0.028 A 
ATOM      3  C   UNL     1     -10.363  -1.105 -12.459  1.00  0.00    +0.028 A 
ATOM      4  C   UNL     1     -10.982  -1.288 -11.220  1.00  0.00    +0.043 A 
ATOM      5  C   UNL     1     -11.601  -0.158 -10.665  1.00  0.00    +0.028 A 
ATOM      6  C   UNL     1     -11.576   1.097 -11.303  1.00  0.00    +0.028 A 
ENDROOT
BRANCH   1   7
ATOM      7  N   UNL     1     -10.896   2.477 -13.260  1.00  0.00    -0.354 N 
ATOM      8  H   UNL     1     -11.623   3.136 -12.961  1.00  0.00    +0.167 HD
BRANCH   7   9
ATOM      9  C   UNL     1     -10.168   2.947 -14.351  1.00  0.00    +0.059 C 
ATOM     10  C   UNL     1      -9.569   6.437 -18.430  1.00  0.00    +0.062 A 
ATOM     11  C   UNL     1      -8.576   5.521 -18.020  1.00  0.00    +0.016 A 
ATOM     12  C   UNL     1     -10.792   6.490 -17.749  1.00  0.00    +0.042 A 
ATOM     13  C   UNL     1      -8.793   4.649 -16.942  1.00  0.00    +0.012 A 
ATOM     14  C   UNL     1     -10.976   5.618 -16.692  1.00  0.00    +0.050 A 
ATOM     15  C   UNL     1     -10.010   4.690 -16.282  1.00  0.00    +0.013 A 
ATOM     16  N   UNL     1     -12.105   5.546 -15.885  1.00  0.00    -0.321 N 
ATOM     17  C   UNL     1     -10.597   3.968 -15.135  1.00  0.00    +0.073 C 
ATOM     18  C   UNL     1     -11.957   4.591 -14.899  1.00  0.00    +0.258 C 
ATOM     19  O   UNL     1     -12.755   4.315 -14.021  1.00  0.00    -0.269 OA
ATOM     20  H   UNL     1     -12.928   6.125 -15.964  1.00  0.00    +0.170 HD
BRANCH  10  21
ATOM     21  C   UNL     1      -9.368   7.373 -19.568  1.00  0.00    +0.337 C 
ATOM     22  O   UNL     1      -9.257   8.581 -19.430  1.00  0.00    -0.246 OA
BRANCH  21  23
ATOM     23  O   UNL     1      -9.326   6.700 -20.743  1.00  0.00    -0.465 OA
ATOM     24  C   UNL     1     -10.115   7.290 -21.778  1.00  0.00    +0.282 C 
ENDBRANCH  21  23
ENDBRANCH  10  21
BRANCH   9  25
ATOM     25  C   UNL     1      -8.839   2.366 -14.625  1.00  0.00    -0.001 A 
ATOM     26  C   UNL     1      -7.716   2.777 -13.888  1.00  0.00    +0.010 A 
ATOM     27  C   UNL     1      -8.686   1.389 -15.619  1.00  0.00    +0.010 A 
ATOM     28  C   UNL     1      -6.463   2.216 -14.140  1.00  0.00    +0.001 A 
ATOM     29  C   UNL     1      -7.431   0.830 -15.868  1.00  0.00    +0.001 A 
ATOM     30  C   UNL     1      -6.323   1.242 -15.129  1.00  0.00    +0.000 A 
ENDBRANCH   9  25
ENDBRANCH   7   9
ENDBRANCH   1   7
BRANCH   4  31
ATOM     31  N   UNL     1     -11.042  -2.579 -10.568  1.00  0.00    -0.314 N 
ATOM     32  C   UNL     1     -12.178  -3.445 -10.886  1.00  0.00    +0.153 C 
BRANCH  31  33
ATOM     33  C   UNL     1     -10.110  -2.962  -9.577  1.00  0.00    +0.240 C 
ATOM     34  O   UNL     1     -10.255  -3.941  -8.842  1.00  0.00    -0.273 OA
BRANCH  33  35
ATOM     35  C   UNL     1      -8.857  -2.059  -9.458  1.00  0.00    +0.185 C 
BRANCH  35  36
ATOM     36  N   UNL     1      -7.725  -2.553 -10.266  1.00  0.00    -0.292 NA
ATOM     37  C   UNL     1      -6.990  -1.441 -10.898  1.00  0.00    +0.100 C 
ATOM     38  C   UNL     1      -6.803  -3.408  -9.506  1.00  0.00    +0.100 C 
ATOM     39  C   UNL     1      -5.530  -1.779 -11.303  1.00  0.00    +0.099 C 
ATOM     40  C   UNL     1      -5.683  -4.012 -10.398  1.00  0.00    +0.099 C 
ATOM     41  N   UNL     1      -5.250  -3.202 -11.561  1.00  0.00    -0.304 NA
ATOM     42  C   UNL     1      -5.925  -3.650 -12.781  1.00  0.00    +0.105 C 
ENDBRANCH  35  36
ENDBRANCH  33  35
ENDBRANCH  31  33
ENDBRANCH   4  31
TORSDOF 9
ENDMDL
MODEL 10
REMARK VINA RESULT:    -8.898      1.884      3.300
REMARK INTER + INTRA:         -15.642
REMARK INTER:                 -14.095
REMARK INTRA:                  -1.547
REMARK UNBOUND:                -2.062
REMARK SMILES COC(=O)c1ccc2c(c1)NC(=O)/C2=C(\Nc1ccc(N(C)C(=O)CN2CCN(C)CC2)cc1)c1ccccc1
REMARK SMILES IDX 17 1 18 2 19 3 20 4 33 5 34 6 16 7 15 9 5 10 6 11 10 12 7 13
REMARK SMILES IDX 9 14 8 15 11 16 14 17 12 18 13 19 3 21 4 22 2 23 1 24 35 25
REMARK SMILES IDX 36 26 40 27 37 28 39 29 38 30 21 31 22 32 23 33 24 34 25 35
REMARK SMILES IDX 26 36 27 37 32 38 28 39 31 40 29 41 30 42
REMARK H PARENT 16 8 11 20
ROOT
ATOM      1  C   UNL     1      -9.287   0.010 -13.346  1.00  0.00    +0.039 A 
ATOM      2  C   UNL     1      -8.157  -0.628 -12.819  1.00  0.00    +0.028 A 
ATOM      3  C   UNL     1      -8.221  -1.431 -11.668  1.00  0.00    +0.028 A 
ATOM      4  C   UNL     1      -9.423  -1.635 -10.984  1.00  0.00    +0.043 A 
ATOM      5  C   UNL     1     -10.558  -1.015 -11.530  1.00  0.00    +0.028 A 
ATOM      6  C   UNL     1     -10.488  -0.211 -12.684  1.00  0.00    +0.028 A 
ENDROOT
BRANCH   1   7
ATOM      7  N   UNL     1      -9.122   0.754 -14.527  1.00  0.00    -0.354 N 
ATOM      8  H   UNL     1      -8.423   0.335 -15.149  1.00  0.00    +0.167 HD
BRANCH   7   9
ATOM      9  C   UNL     1      -9.613   1.965 -15.013  1.00  0.00    +0.059 C 
ATOM     10  C   UNL     1      -9.343   6.050 -18.535  1.00  0.00    +0.062 A 
ATOM     11  C   UNL     1     -10.409   5.854 -17.631  1.00  0.00    +0.016 A 
ATOM     12  C   UNL     1      -8.279   5.139 -18.567  1.00  0.00    +0.042 A 
ATOM     13  C   UNL     1     -10.422   4.762 -16.750  1.00  0.00    +0.012 A 
ATOM     14  C   UNL     1      -8.321   4.074 -17.687  1.00  0.00    +0.050 A 
ATOM     15  C   UNL     1      -9.361   3.873 -16.770  1.00  0.00    +0.013 A 
ATOM     16  N   UNL     1      -7.376   3.060 -17.594  1.00  0.00    -0.321 N 
ATOM     17  C   UNL     1      -9.023   2.638 -16.033  1.00  0.00    +0.073 C 
ATOM     18  C   UNL     1      -7.730   2.131 -16.636  1.00  0.00    +0.258 C 
ATOM     19  O   UNL     1      -7.126   1.114 -16.343  1.00  0.00    -0.269 OA
ATOM     20  H   UNL     1      -6.546   2.968 -18.162  1.00  0.00    +0.170 HD
BRANCH  10  21
ATOM     21  C   UNL     1      -9.302   7.197 -19.481  1.00  0.00    +0.337 C 
ATOM     22  O   UNL     1      -9.272   8.363 -19.119  1.00  0.00    -0.246 OA
BRANCH  21  23
ATOM     23  O   UNL     1      -9.304   6.764 -20.765  1.00  0.00    -0.465 OA
ATOM     24  C   UNL     1     -10.139   7.529 -21.635  1.00  0.00    +0.282 C 
ENDBRANCH  21  23
ENDBRANCH  10  21
BRANCH   9  25
ATOM     25  C   UNL     1     -10.868   2.502 -14.453  1.00  0.00    -0.001 A 
ATOM     26  C   UNL     1     -12.079   1.815 -14.631  1.00  0.00    +0.010 A 
ATOM     27  C   UNL     1     -10.860   3.702 -13.727  1.00  0.00    +0.010 A 
ATOM     28  C   UNL     1     -13.263   2.319 -14.088  1.00  0.00    +0.001 A 
ATOM     29  C   UNL     1     -12.045   4.203 -13.185  1.00  0.00    +0.001 A 
ATOM     30  C   UNL     1     -13.243   3.512 -13.365  1.00  0.00    +0.000 A 
ENDBRANCH   9  25
ENDBRANCH   7   9
ENDBRANCH   1   7
BRANCH   4  31
ATOM     31  N   UNL     1      -9.513  -2.483  -9.816  1.00  0.00    -0.314 N 
ATOM     32  C   UNL     1      -8.326  -2.594  -8.967  1.00  0.00    +0.153 C 
BRANCH  31  33
ATOM     33  C   UNL     1     -10.657  -3.268  -9.546  1.00  0.00    +0.240 C 
ATOM     34  O   UNL     1     -10.981  -4.257 -10.207  1.00  0.00    -0.273 OA
BRANCH  33  35
ATOM     35  C   UNL     1     -11.510  -2.807  -8.338  1.00  0.00    +0.185 C 
BRANCH  35  36
ATOM     36  N   UNL     1     -12.443  -1.718  -8.687  1.00  0.00    -0.292 NA
ATOM     37  C   UNL     1     -13.601  -2.225  -9.447  1.00  0.00    +0.100 C 
ATOM     38  C   UNL     1     -12.895  -0.950  -7.519  1.00  0.00    +0.100 C 
ATOM     39  C   UNL     1     -14.856  -1.313  -9.397  1.00  0.00    +0.099 C 
ATOM     40  C   UNL     1     -13.783   0.263  -7.915  1.00  0.00    +0.099 C 
ATOM     41  N   UNL     1     -14.600   0.116  -9.142  1.00  0.00    -0.304 NA
ATOM     42  C   UNL     1     -13.926   0.733 -10.287  1.00  0.00    +0.105 C 
ENDBRANCH  35  36
ENDBRANCH  33  35
ENDBRANCH  31  33
ENDBRANCH   4  31
TORSDOF 9
ENDMDL
