REMARK SMILES O=[S@@]1CCc2nc(N3CCC(c4ncc(Cl)cn4)CC3)nc(NC3(CO)CCC3)c21
REMARK SMILES IDX 23 1 24 3 28 4 27 5 29 6 25 7 26 8 22 10 21 11 30 12 7 13
REMARK SMILES IDX 5 14 2 15 6 16 4 17 1 18 3 19 8 20 9 21 20 22 10 23 19 24
REMARK SMILES IDX 11 25 12 26 13 27 18 28 14 29 17 30 15 31 16 32
REMARK H PARENT 23 2 26 9
ROOT
ATOM      1  N   UNL     1      -2.905  -0.732   1.102  1.00  0.00    -0.361 N 
ATOM      2  H   UNL     1      -2.476  -0.210   1.870  1.00  0.00    +0.162 HD
ENDROOT
BRANCH   1   3
ATOM      3  C   UNL     1      -4.279  -0.289   0.911  1.00  0.00    +0.062 C 
ATOM      4  C   UNL     1      -6.162  -0.958   1.759  1.00  0.00    +0.005 C 
ATOM      5  C   UNL     1      -5.246  -1.478   0.638  1.00  0.00    +0.031 C 
ATOM      6  C   UNL     1      -4.963  -0.175   2.316  1.00  0.00    +0.031 C 
BRANCH   3   7
ATOM      7  C   UNL     1      -4.371   0.974   0.042  1.00  0.00    +0.184 C 
BRANCH   7   8
ATOM      8  O   UNL     1      -5.716   1.434  -0.062  1.00  0.00    -0.394 OA
ATOM      9  H   UNL     1      -5.693   2.272  -0.555  1.00  0.00    +0.210 HD
ENDBRANCH   7   8
ENDBRANCH   3   7
ENDBRANCH   1   3
BRANCH   1  10
ATOM     10  C   UNL     1      -1.890  -0.733   0.132  1.00  0.00    +0.148 A 
ATOM     11  N   UNL     1      -0.807  -0.011   0.490  1.00  0.00    -0.194 NA
ATOM     12  C   UNL     1      -1.935  -1.368  -1.080  1.00  0.00    +0.103 A 
ATOM     13  C   UNL     1       0.236   0.104  -0.360  1.00  0.00    +0.227 A 
ATOM     14  C   UNL     1      -0.843  -1.192  -1.899  1.00  0.00    +0.065 A 
ATOM     15  S   UNL     1      -3.187  -2.392  -1.813  1.00  0.00    +0.059 S 
ATOM     16  N   UNL     1       0.237  -0.465  -1.575  1.00  0.00    -0.217 NA
ATOM     17  C   UNL     1      -0.911  -1.944  -3.199  1.00  0.00    +0.072 C 
ATOM     18  O   UNL     1      -2.860  -3.788  -1.370  1.00  0.00    -0.254 OA
ATOM     19  C   UNL     1      -2.396  -2.168  -3.457  1.00  0.00    +0.117 C 
BRANCH  13  20
ATOM     20  N   UNL     1       1.322   0.869   0.020  1.00  0.00    -0.341 N 
ATOM     21  C   UNL     1       1.517   1.143   1.440  1.00  0.00    +0.120 C 
ATOM     22  C   UNL     1       2.468   0.918  -0.882  1.00  0.00    +0.120 C 
ATOM     23  C   UNL     1       2.979   0.949   1.830  1.00  0.00    +0.033 C 
ATOM     24  C   UNL     1       3.406   2.041  -0.445  1.00  0.00    +0.033 C 
ATOM     25  C   UNL     1       3.915   1.830   0.990  1.00  0.00    +0.061 C 
BRANCH  25  26
ATOM     26  C   UNL     1       5.313   1.253   1.016  1.00  0.00    +0.131 A 
ATOM     27  N   UNL     1       6.207   1.829   1.845  1.00  0.00    -0.240 NA
ATOM     28  N   UNL     1       5.577   0.180   0.241  1.00  0.00    -0.240 NA
ATOM     29  C   UNL     1       7.443   1.282   1.875  1.00  0.00    +0.135 A 
ATOM     30  C   UNL     1       6.830  -0.325   0.314  1.00  0.00    +0.135 A 
ATOM     31  C   UNL     1       7.813   0.193   1.123  1.00  0.00    +0.077 A 
ATOM     32 Cl   UNL     1       9.386  -0.471   1.188  1.00  0.00    -0.081 Cl
ENDBRANCH  25  26
ENDBRANCH  13  20
ENDBRANCH   1  10
TORSDOF 6
