MODEL 1
REMARK VINA RESULT:    -8.421      0.000      0.000
REMARK INTER + INTRA:         -11.695
REMARK INTER:                 -11.129
REMARK INTRA:                  -0.566
REMARK UNBOUND:                -0.566
REMARK SMILES O=[S@@]1CCc2nc(N3CCC(c4ncc(Cl)cn4)CC3)nc(NC3(CO)CCC3)c21
REMARK SMILES IDX 23 1 24 3 28 4 27 5 29 6 25 7 26 8 22 10 21 11 30 12 7 13
REMARK SMILES IDX 5 14 2 15 6 16 4 17 1 18 3 19 8 20 9 21 20 22 10 23 19 24
REMARK SMILES IDX 11 25 12 26 13 27 18 28 14 29 17 30 15 31 16 32
REMARK H PARENT 23 2 26 9
ROOT
ATOM      1  N   UNL     1     -38.566 163.256  -7.056  1.00  0.00    -0.361 N 
ATOM      2  H   UNL     1     -39.416 162.696  -7.148  1.00  0.00    +0.162 HD
ENDROOT
BRANCH   1   3
ATOM      3  C   UNL     1     -37.969 163.037  -5.745  1.00  0.00    +0.062 C 
ATOM      4  C   UNL     1     -38.148 161.417  -4.310  1.00  0.00    +0.005 C 
ATOM      5  C   UNL     1     -39.028 162.623  -4.681  1.00  0.00    +0.031 C 
ATOM      6  C   UNL     1     -37.456 161.558  -5.675  1.00  0.00    +0.031 C 
BRANCH   3   7
ATOM      7  C   UNL     1     -36.921 164.103  -5.393  1.00  0.00    +0.184 C 
BRANCH   7   8
ATOM      8  O   UNL     1     -37.512 165.203  -4.707  1.00  0.00    -0.394 OA
ATOM      9  H   UNL     1     -36.790 165.693  -4.278  1.00  0.00    +0.210 HD
ENDBRANCH   7   8
ENDBRANCH   3   7
ENDBRANCH   1   3
BRANCH   1  10
ATOM     10  C   UNL     1     -37.939 163.061  -8.297  1.00  0.00    +0.148 A 
ATOM     11  N   UNL     1     -37.773 161.759  -8.614  1.00  0.00    -0.194 NA
ATOM     12  C   UNL     1     -37.501 164.046  -9.141  1.00  0.00    +0.103 A 
ATOM     13  C   UNL     1     -37.155 161.421  -9.766  1.00  0.00    +0.227 A 
ATOM     14  C   UNL     1     -36.866 163.625 -10.288  1.00  0.00    +0.065 A 
ATOM     15  S   UNL     1     -37.593 165.814  -9.015  1.00  0.00    +0.059 S 
ATOM     16  N   UNL     1     -36.673 162.339 -10.617  1.00  0.00    -0.217 NA
ATOM     17  C   UNL     1     -36.445 164.734 -11.210  1.00  0.00    +0.072 C 
ATOM     18  O   UNL     1     -38.899 166.185  -9.655  1.00  0.00    -0.254 OA
ATOM     19  C   UNL     1     -36.310 165.966 -10.323  1.00  0.00    +0.117 C 
BRANCH  13  20
ATOM     20  N   UNL     1     -36.976 160.082 -10.056  1.00  0.00    -0.341 N 
ATOM     21  C   UNL     1     -37.082 159.651 -11.446  1.00  0.00    +0.120 C 
ATOM     22  C   UNL     1     -36.199 159.281  -9.115  1.00  0.00    +0.120 C 
ATOM     23  C   UNL     1     -35.948 158.694 -11.800  1.00  0.00    +0.033 C 
ATOM     24  C   UNL     1     -36.384 157.800  -9.442  1.00  0.00    +0.033 C 
ATOM     25  C   UNL     1     -35.922 157.472 -10.871  1.00  0.00    +0.061 C 
BRANCH  25  26
ATOM     26  C   UNL     1     -34.544 156.849 -10.891  1.00  0.00    +0.131 A 
ATOM     27  N   UNL     1     -34.463 155.514 -10.714  1.00  0.00    -0.240 NA
ATOM     28  N   UNL     1     -33.482 157.651 -11.119  1.00  0.00    -0.240 NA
ATOM     29  C   UNL     1     -33.226 154.972 -10.764  1.00  0.00    +0.135 A 
ATOM     30  C   UNL     1     -32.270 157.052 -11.159  1.00  0.00    +0.135 A 
ATOM     31  C   UNL     1     -32.082 155.701 -10.986  1.00  0.00    +0.077 A 
ATOM     32 Cl   UNL     1     -30.534 154.980 -11.041  1.00  0.00    -0.081 Cl
ENDBRANCH  25  26
ENDBRANCH  13  20
ENDBRANCH   1  10
TORSDOF 6
ENDMDL
MODEL 2
REMARK VINA RESULT:    -8.075     15.347     18.695
REMARK INTER + INTRA:         -11.237
REMARK INTER:                 -10.696
REMARK INTRA:                  -0.541
REMARK UNBOUND:                -0.566
REMARK SMILES O=[S@@]1CCc2nc(N3CCC(c4ncc(Cl)cn4)CC3)nc(NC3(CO)CCC3)c21
REMARK SMILES IDX 23 1 24 3 28 4 27 5 29 6 25 7 26 8 22 10 21 11 30 12 7 13
REMARK SMILES IDX 5 14 2 15 6 16 4 17 1 18 3 19 8 20 9 21 20 22 10 23 19 24
REMARK SMILES IDX 11 25 12 26 13 27 18 28 14 29 17 30 15 31 16 32
REMARK H PARENT 23 2 26 9
ROOT
ATOM      1  N   UNL     1     -34.831 148.561  -0.913  1.00  0.00    -0.361 N 
ATOM      2  H   UNL     1     -33.966 148.528  -1.458  1.00  0.00    +0.162 HD
ENDROOT
BRANCH   1   3
ATOM      3  C   UNL     1     -35.979 148.435  -1.800  1.00  0.00    +0.062 C 
ATOM      4  C   UNL     1     -37.572 146.967  -1.929  1.00  0.00    +0.005 C 
ATOM      5  C   UNL     1     -36.106 147.002  -2.394  1.00  0.00    +0.031 C 
ATOM      6  C   UNL     1     -37.238 148.089  -0.934  1.00  0.00    +0.031 C 
BRANCH   3   7
ATOM      7  C   UNL     1     -36.142 149.653  -2.722  1.00  0.00    +0.184 C 
BRANCH   7   8
ATOM      8  O   UNL     1     -35.574 150.823  -2.139  1.00  0.00    -0.394 OA
ATOM      9  H   UNL     1     -36.268 151.236  -1.597  1.00  0.00    +0.210 HD
ENDBRANCH   7   8
ENDBRANCH   3   7
ENDBRANCH   1   3
BRANCH   1  10
ATOM     10  C   UNL     1     -34.531 147.734   0.181  1.00  0.00    +0.148 A 
ATOM     11  N   UNL     1     -35.141 148.115   1.323  1.00  0.00    -0.194 NA
ATOM     12  C   UNL     1     -33.703 146.644   0.164  1.00  0.00    +0.103 A 
ATOM     13  C   UNL     1     -34.919 147.430   2.466  1.00  0.00    +0.227 A 
ATOM     14  C   UNL     1     -33.513 146.006   1.368  1.00  0.00    +0.065 A 
ATOM     15  S   UNL     1     -32.792 145.894  -1.164  1.00  0.00    +0.059 S 
ATOM     16  N   UNL     1     -34.091 146.376   2.521  1.00  0.00    -0.217 NA
ATOM     17  C   UNL     1     -32.635 144.787   1.296  1.00  0.00    +0.072 C 
ATOM     18  O   UNL     1     -33.729 144.884  -1.760  1.00  0.00    -0.254 OA
ATOM     19  C   UNL     1     -31.763 144.991   0.063  1.00  0.00    +0.117 C 
BRANCH  13  20
ATOM     20  N   UNL     1     -35.536 147.856   3.627  1.00  0.00    -0.341 N 
ATOM     21  C   UNL     1     -34.789 147.783   4.878  1.00  0.00    +0.120 C 
ATOM     22  C   UNL     1     -36.633 148.809   3.503  1.00  0.00    +0.120 C 
ATOM     23  C   UNL     1     -34.961 149.068   5.683  1.00  0.00    +0.033 C 
ATOM     24  C   UNL     1     -37.371 148.905   4.837  1.00  0.00    +0.033 C 
ATOM     25  C   UNL     1     -36.439 149.368   5.969  1.00  0.00    +0.061 C 
BRANCH  25  26
ATOM     26  C   UNL     1     -36.608 150.839   6.276  1.00  0.00    +0.131 A 
ATOM     27  N   UNL     1     -35.658 151.429   7.030  1.00  0.00    -0.240 NA
ATOM     28  N   UNL     1     -37.672 151.484   5.753  1.00  0.00    -0.240 NA
ATOM     29  C   UNL     1     -35.811 152.750   7.270  1.00  0.00    +0.135 A 
ATOM     30  C   UNL     1     -37.771 152.806   6.026  1.00  0.00    +0.135 A 
ATOM     31  C   UNL     1     -36.859 153.496   6.787  1.00  0.00    +0.077 A 
ATOM     32 Cl   UNL     1     -37.019 155.166   7.112  1.00  0.00    -0.081 Cl
ENDBRANCH  25  26
ENDBRANCH  13  20
ENDBRANCH   1  10
TORSDOF 6
ENDMDL
MODEL 3
REMARK VINA RESULT:    -8.055     15.963     18.478
REMARK INTER + INTRA:         -11.210
REMARK INTER:                  -9.940
REMARK INTRA:                  -1.271
REMARK UNBOUND:                -0.566
REMARK SMILES O=[S@@]1CCc2nc(N3CCC(c4ncc(Cl)cn4)CC3)nc(NC3(CO)CCC3)c21
REMARK SMILES IDX 23 1 24 3 28 4 27 5 29 6 25 7 26 8 22 10 21 11 30 12 7 13
REMARK SMILES IDX 5 14 2 15 6 16 4 17 1 18 3 19 8 20 9 21 20 22 10 23 19 24
REMARK SMILES IDX 11 25 12 26 13 27 18 28 14 29 17 30 15 31 16 32
REMARK H PARENT 23 2 26 9
ROOT
ATOM      1  N   UNL     1     -36.084 147.469   2.417  1.00  0.00    -0.361 N 
ATOM      2  H   UNL     1     -36.465 146.548   2.188  1.00  0.00    +0.162 HD
ENDROOT
BRANCH   1   3
ATOM      3  C   UNL     1     -35.314 147.978   1.291  1.00  0.00    +0.062 C 
ATOM      4  C   UNL     1     -35.801 148.260  -0.805  1.00  0.00    +0.005 C 
ATOM      5  C   UNL     1     -35.404 147.044   0.049  1.00  0.00    +0.031 C 
ATOM      6  C   UNL     1     -36.212 148.980   0.488  1.00  0.00    +0.031 C 
BRANCH   3   7
ATOM      7  C   UNL     1     -33.948 148.534   1.720  1.00  0.00    +0.184 C 
BRANCH   7   8
ATOM      8  O   UNL     1     -34.091 149.742   2.463  1.00  0.00    -0.394 OA
ATOM      9  H   UNL     1     -34.330 149.491   3.372  1.00  0.00    +0.210 HD
ENDBRANCH   7   8
ENDBRANCH   3   7
ENDBRANCH   1   3
BRANCH   1  10
ATOM     10  C   UNL     1     -37.174 148.104   3.033  1.00  0.00    +0.148 A 
ATOM     11  N   UNL     1     -36.808 149.040   3.934  1.00  0.00    -0.194 NA
ATOM     12  C   UNL     1     -38.497 147.839   2.801  1.00  0.00    +0.103 A 
ATOM     13  C   UNL     1     -37.753 149.711   4.629  1.00  0.00    +0.227 A 
ATOM     14  C   UNL     1     -39.401 148.550   3.557  1.00  0.00    +0.065 A 
ATOM     15  S   UNL     1     -39.278 146.703   1.682  1.00  0.00    +0.059 S 
ATOM     16  N   UNL     1     -39.063 149.472   4.472  1.00  0.00    -0.217 NA
ATOM     17  C   UNL     1     -40.842 148.264   3.238  1.00  0.00    +0.072 C 
ATOM     18  O   UNL     1     -39.462 147.473   0.407  1.00  0.00    -0.254 OA
ATOM     19  C   UNL     1     -40.849 146.870   2.622  1.00  0.00    +0.117 C 
BRANCH  13  20
ATOM     20  N   UNL     1     -37.352 150.646   5.563  1.00  0.00    -0.341 N 
ATOM     21  C   UNL     1     -36.218 150.327   6.424  1.00  0.00    +0.120 C 
ATOM     22  C   UNL     1     -37.690 152.044   5.314  1.00  0.00    +0.120 C 
ATOM     23  C   UNL     1     -35.267 151.516   6.525  1.00  0.00    +0.033 C 
ATOM     24  C   UNL     1     -37.447 152.855   6.585  1.00  0.00    +0.033 C 
ATOM     25  C   UNL     1     -35.981 152.775   7.038  1.00  0.00    +0.061 C 
BRANCH  25  26
ATOM     26  C   UNL     1     -35.195 154.003   6.635  1.00  0.00    +0.131 A 
ATOM     27  N   UNL     1     -34.552 153.967   5.450  1.00  0.00    -0.240 NA
ATOM     28  N   UNL     1     -35.210 155.072   7.459  1.00  0.00    -0.240 NA
ATOM     29  C   UNL     1     -33.878 155.084   5.094  1.00  0.00    +0.135 A 
ATOM     30  C   UNL     1     -34.520 156.161   7.049  1.00  0.00    +0.135 A 
ATOM     31  C   UNL     1     -33.829 156.222   5.863  1.00  0.00    +0.077 A 
ATOM     32 Cl   UNL     1     -32.966 157.615   5.379  1.00  0.00    -0.081 Cl
ENDBRANCH  25  26
ENDBRANCH  13  20
ENDBRANCH   1  10
TORSDOF 6
ENDMDL
MODEL 4
REMARK VINA RESULT:    -7.957     11.030     14.721
REMARK INTER + INTRA:         -11.081
REMARK INTER:                  -9.996
REMARK INTRA:                  -1.085
REMARK UNBOUND:                -0.566
REMARK SMILES O=[S@@]1CCc2nc(N3CCC(c4ncc(Cl)cn4)CC3)nc(NC3(CO)CCC3)c21
REMARK SMILES IDX 23 1 24 3 28 4 27 5 29 6 25 7 26 8 22 10 21 11 30 12 7 13
REMARK SMILES IDX 5 14 2 15 6 16 4 17 1 18 3 19 8 20 9 21 20 22 10 23 19 24
REMARK SMILES IDX 11 25 12 26 13 27 18 28 14 29 17 30 15 31 16 32
REMARK H PARENT 23 2 26 9
ROOT
ATOM      1  N   UNL     1     -36.976 154.039   4.658  1.00  0.00    -0.361 N 
ATOM      2  H   UNL     1     -36.098 153.572   4.419  1.00  0.00    +0.162 HD
ENDROOT
BRANCH   1   3
ATOM      3  C   UNL     1     -37.483 153.521   5.921  1.00  0.00    +0.062 C 
ATOM      4  C   UNL     1     -37.202 151.627   6.942  1.00  0.00    +0.005 C 
ATOM      5  C   UNL     1     -38.083 152.093   5.770  1.00  0.00    +0.031 C 
ATOM      6  C   UNL     1     -36.299 152.843   6.690  1.00  0.00    +0.031 C 
BRANCH   3   7
ATOM      7  C   UNL     1     -38.252 154.583   6.721  1.00  0.00    +0.184 C 
BRANCH   7   8
ATOM      8  O   UNL     1     -37.409 155.222   7.677  1.00  0.00    -0.394 OA
ATOM      9  H   UNL     1     -36.540 154.787   7.626  1.00  0.00    +0.210 HD
ENDBRANCH   7   8
ENDBRANCH   3   7
ENDBRANCH   1   3
BRANCH   1  10
ATOM     10  C   UNL     1     -36.694 155.383   4.364  1.00  0.00    +0.148 A 
ATOM     11  N   UNL     1     -37.593 155.949   3.532  1.00  0.00    -0.194 NA
ATOM     12  C   UNL     1     -35.625 156.101   4.828  1.00  0.00    +0.103 A 
ATOM     13  C   UNL     1     -37.431 157.230   3.136  1.00  0.00    +0.227 A 
ATOM     14  C   UNL     1     -35.517 157.394   4.369  1.00  0.00    +0.065 A 
ATOM     15  S   UNL     1     -34.309 155.650   5.932  1.00  0.00    +0.059 S 
ATOM     16  N   UNL     1     -36.386 157.974   3.528  1.00  0.00    -0.217 NA
ATOM     17  C   UNL     1     -34.358 158.163   4.940  1.00  0.00    +0.072 C 
ATOM     18  O   UNL     1     -34.817 155.985   7.304  1.00  0.00    -0.254 OA
ATOM     19  C   UNL     1     -33.344 157.107   5.363  1.00  0.00    +0.117 C 
BRANCH  13  20
ATOM     20  N   UNL     1     -38.352 157.778   2.264  1.00  0.00    -0.341 N 
ATOM     21  C   UNL     1     -39.460 158.550   2.818  1.00  0.00    +0.120 C 
ATOM     22  C   UNL     1     -37.926 158.023   0.890  1.00  0.00    +0.120 C 
ATOM     23  C   UNL     1     -39.667 159.838   2.026  1.00  0.00    +0.033 C 
ATOM     24  C   UNL     1     -39.150 158.324   0.029  1.00  0.00    +0.033 C 
ATOM     25  C   UNL     1     -39.913 159.558   0.537  1.00  0.00    +0.061 C 
BRANCH  25  26
ATOM     26  C   UNL     1     -39.591 160.795  -0.271  1.00  0.00    +0.131 A 
ATOM     27  N   UNL     1     -38.974 161.810   0.366  1.00  0.00    -0.240 NA
ATOM     28  N   UNL     1     -39.905 160.801  -1.584  1.00  0.00    -0.240 NA
ATOM     29  C   UNL     1     -38.669 162.896  -0.379  1.00  0.00    +0.135 A 
ATOM     30  C   UNL     1     -39.574 161.914  -2.279  1.00  0.00    +0.135 A 
ATOM     31  C   UNL     1     -38.949 163.003  -1.720  1.00  0.00    +0.077 A 
ATOM     32 Cl   UNL     1     -38.548 164.393  -2.630  1.00  0.00    -0.081 Cl
ENDBRANCH  25  26
ENDBRANCH  13  20
ENDBRANCH   1  10
TORSDOF 6
ENDMDL
MODEL 5
REMARK VINA RESULT:    -7.698     16.051     18.322
REMARK INTER + INTRA:         -10.739
REMARK INTER:                  -9.431
REMARK INTRA:                  -1.308
REMARK UNBOUND:                -0.566
REMARK SMILES O=[S@@]1CCc2nc(N3CCC(c4ncc(Cl)cn4)CC3)nc(NC3(CO)CCC3)c21
REMARK SMILES IDX 23 1 24 3 28 4 27 5 29 6 25 7 26 8 22 10 21 11 30 12 7 13
REMARK SMILES IDX 5 14 2 15 6 16 4 17 1 18 3 19 8 20 9 21 20 22 10 23 19 24
REMARK SMILES IDX 11 25 12 26 13 27 18 28 14 29 17 30 15 31 16 32
REMARK H PARENT 23 2 26 9
ROOT
ATOM      1  N   UNL     1     -35.539 146.654   0.868  1.00  0.00    -0.361 N 
ATOM      2  H   UNL     1     -35.749 145.695   0.582  1.00  0.00    +0.162 HD
ENDROOT
BRANCH   1   3
ATOM      3  C   UNL     1     -34.503 147.210   0.009  1.00  0.00    +0.062 C 
ATOM      4  C   UNL     1     -32.689 146.362  -0.829  1.00  0.00    +0.005 C 
ATOM      5  C   UNL     1     -33.073 146.920   0.552  1.00  0.00    +0.031 C 
ATOM      6  C   UNL     1     -34.186 146.171  -1.120  1.00  0.00    +0.031 C 
BRANCH   3   7
ATOM      7  C   UNL     1     -34.850 148.620  -0.489  1.00  0.00    +0.184 C 
BRANCH   7   8
ATOM      8  O   UNL     1     -35.225 148.607  -1.864  1.00  0.00    -0.394 OA
ATOM      9  H   UNL     1     -35.121 149.515  -2.197  1.00  0.00    +0.210 HD
ENDBRANCH   7   8
ENDBRANCH   3   7
ENDBRANCH   1   3
BRANCH   1  10
ATOM     10  C   UNL     1     -36.818 147.193   1.082  1.00  0.00    +0.148 A 
ATOM     11  N   UNL     1     -36.918 147.891   2.234  1.00  0.00    -0.194 NA
ATOM     12  C   UNL     1     -37.901 147.051   0.257  1.00  0.00    +0.103 A 
ATOM     13  C   UNL     1     -38.100 148.440   2.587  1.00  0.00    +0.227 A 
ATOM     14  C   UNL     1     -39.075 147.624   0.690  1.00  0.00    +0.065 A 
ATOM     15  S   UNL     1     -38.073 146.226  -1.306  1.00  0.00    +0.059 S 
ATOM     16  N   UNL     1     -39.205 148.306   1.838  1.00  0.00    -0.217 NA
ATOM     17  C   UNL     1     -40.226 147.486  -0.267  1.00  0.00    +0.072 C 
ATOM     18  O   UNL     1     -37.733 147.264  -2.336  1.00  0.00    -0.254 OA
ATOM     19  C   UNL     1     -39.901 146.262  -1.114  1.00  0.00    +0.117 C 
BRANCH  13  20
ATOM     20  N   UNL     1     -38.183 149.128   3.782  1.00  0.00    -0.341 N 
ATOM     21  C   UNL     1     -37.195 148.845   4.818  1.00  0.00    +0.120 C 
ATOM     22  C   UNL     1     -38.864 150.419   3.777  1.00  0.00    +0.120 C 
ATOM     23  C   UNL     1     -36.676 150.139   5.436  1.00  0.00    +0.033 C 
ATOM     24  C   UNL     1     -39.123 150.857   5.217  1.00  0.00    +0.033 C 
ATOM     25  C   UNL     1     -37.815 150.992   6.014  1.00  0.00    +0.061 C 
BRANCH  25  26
ATOM     26  C   UNL     1     -37.365 152.431   6.125  1.00  0.00    +0.131 A 
ATOM     27  N   UNL     1     -36.232 152.779   5.481  1.00  0.00    -0.240 NA
ATOM     28  N   UNL     1     -38.134 153.290   6.827  1.00  0.00    -0.240 NA
ATOM     29  C   UNL     1     -35.861 154.076   5.569  1.00  0.00    +0.135 A 
ATOM     30  C   UNL     1     -37.713 154.575   6.879  1.00  0.00    +0.135 A 
ATOM     31  C   UNL     1     -36.572 155.027   6.261  1.00  0.00    +0.077 A 
ATOM     32 Cl   UNL     1     -36.070 156.658   6.350  1.00  0.00    -0.081 Cl
ENDBRANCH  25  26
ENDBRANCH  13  20
ENDBRANCH   1  10
TORSDOF 6
ENDMDL
MODEL 6
REMARK VINA RESULT:    -7.561     16.195     19.536
REMARK INTER + INTRA:         -10.557
REMARK INTER:                  -9.565
REMARK INTRA:                  -0.992
REMARK UNBOUND:                -0.566
REMARK SMILES O=[S@@]1CCc2nc(N3CCC(c4ncc(Cl)cn4)CC3)nc(NC3(CO)CCC3)c21
REMARK SMILES IDX 23 1 24 3 28 4 27 5 29 6 25 7 26 8 22 10 21 11 30 12 7 13
REMARK SMILES IDX 5 14 2 15 6 16 4 17 1 18 3 19 8 20 9 21 20 22 10 23 19 24
REMARK SMILES IDX 11 25 12 26 13 27 18 28 14 29 17 30 15 31 16 32
REMARK H PARENT 23 2 26 9
ROOT
ATOM      1  N   UNL     1     -34.241 148.229   4.802  1.00  0.00    -0.361 N 
ATOM      2  H   UNL     1     -33.891 147.327   5.135  1.00  0.00    +0.162 HD
ENDROOT
BRANCH   1   3
ATOM      3  C   UNL     1     -35.079 148.030   3.627  1.00  0.00    +0.062 C 
ATOM      4  C   UNL     1     -34.651 147.274   1.638  1.00  0.00    +0.005 C 
ATOM      5  C   UNL     1     -34.435 148.625   2.341  1.00  0.00    +0.031 C 
ATOM      6  C   UNL     1     -34.761 146.620   3.024  1.00  0.00    +0.031 C 
BRANCH   3   7
ATOM      7  C   UNL     1     -36.564 148.290   3.917  1.00  0.00    +0.184 C 
BRANCH   7   8
ATOM      8  O   UNL     1     -36.891 149.668   3.752  1.00  0.00    -0.394 OA
ATOM      9  H   UNL     1     -36.775 150.094   4.619  1.00  0.00    +0.210 HD
ENDBRANCH   7   8
ENDBRANCH   3   7
ENDBRANCH   1   3
BRANCH   1  10
ATOM     10  C   UNL     1     -34.620 148.865   5.995  1.00  0.00    +0.148 A 
ATOM     11  N   UNL     1     -34.524 150.210   5.937  1.00  0.00    -0.194 NA
ATOM     12  C   UNL     1     -35.041 148.245   7.140  1.00  0.00    +0.103 A 
ATOM     13  C   UNL     1     -34.825 150.953   7.024  1.00  0.00    +0.227 A 
ATOM     14  C   UNL     1     -35.314 149.065   8.211  1.00  0.00    +0.065 A 
ATOM     15  S   UNL     1     -35.288 146.525   7.511  1.00  0.00    +0.059 S 
ATOM     16  N   UNL     1     -35.209 150.403   8.186  1.00  0.00    -0.217 NA
ATOM     17  C   UNL     1     -35.818 148.349   9.433  1.00  0.00    +0.072 C 
ATOM     18  O   UNL     1     -36.711 146.243   7.128  1.00  0.00    -0.254 OA
ATOM     19  C   UNL     1     -35.299 146.922   9.305  1.00  0.00    +0.117 C 
BRANCH  13  20
ATOM     20  N   UNL     1     -34.694 152.327   6.947  1.00  0.00    -0.341 N 
ATOM     21  C   UNL     1     -33.642 152.879   6.100  1.00  0.00    +0.120 C 
ATOM     22  C   UNL     1     -35.867 153.140   7.253  1.00  0.00    +0.120 C 
ATOM     23  C   UNL     1     -34.176 154.039   5.266  1.00  0.00    +0.033 C 
ATOM     24  C   UNL     1     -35.441 154.597   7.420  1.00  0.00    +0.033 C 
ATOM     25  C   UNL     1     -34.779 155.144   6.146  1.00  0.00    +0.061 C 
BRANCH  25  26
ATOM     26  C   UNL     1     -35.735 155.981   5.325  1.00  0.00    +0.131 A 
ATOM     27  N   UNL     1     -35.285 157.165   4.864  1.00  0.00    -0.240 NA
ATOM     28  N   UNL     1     -36.964 155.484   5.071  1.00  0.00    -0.240 NA
ATOM     29  C   UNL     1     -36.144 157.886   4.109  1.00  0.00    +0.135 A 
ATOM     30  C   UNL     1     -37.780 156.249   4.309  1.00  0.00    +0.135 A 
ATOM     31  C   UNL     1     -37.417 157.472   3.797  1.00  0.00    +0.077 A 
ATOM     32 Cl   UNL     1     -38.475 158.411   2.839  1.00  0.00    -0.081 Cl
ENDBRANCH  25  26
ENDBRANCH  13  20
ENDBRANCH   1  10
TORSDOF 6
ENDMDL
MODEL 7
REMARK VINA RESULT:    -7.522     17.309     20.314
REMARK INTER + INTRA:         -10.507
REMARK INTER:                  -9.881
REMARK INTRA:                  -0.626
REMARK UNBOUND:                -0.566
REMARK SMILES O=[S@@]1CCc2nc(N3CCC(c4ncc(Cl)cn4)CC3)nc(NC3(CO)CCC3)c21
REMARK SMILES IDX 23 1 24 3 28 4 27 5 29 6 25 7 26 8 22 10 21 11 30 12 7 13
REMARK SMILES IDX 5 14 2 15 6 16 4 17 1 18 3 19 8 20 9 21 20 22 10 23 19 24
REMARK SMILES IDX 11 25 12 26 13 27 18 28 14 29 17 30 15 31 16 32
REMARK H PARENT 23 2 26 9
ROOT
ATOM      1  N   UNL     1     -35.932 149.124   9.977  1.00  0.00    -0.361 N 
ATOM      2  H   UNL     1     -36.172 148.130   9.938  1.00  0.00    +0.162 HD
ENDROOT
BRANCH   1   3
ATOM      3  C   UNL     1     -35.219 149.411  11.214  1.00  0.00    +0.062 C 
ATOM      4  C   UNL     1     -35.829 150.368  13.064  1.00  0.00    +0.005 C 
ATOM      5  C   UNL     1     -35.417 150.885  11.676  1.00  0.00    +0.031 C 
ATOM      6  C   UNL     1     -36.135 149.007  12.419  1.00  0.00    +0.031 C 
BRANCH   3   7
ATOM      7  C   UNL     1     -33.813 148.795  11.235  1.00  0.00    +0.184 C 
BRANCH   7   8
ATOM      8  O   UNL     1     -32.977 149.379  10.239  1.00  0.00    -0.394 OA
ATOM      9  H   UNL     1     -33.378 149.177   9.376  1.00  0.00    +0.210 HD
ENDBRANCH   7   8
ENDBRANCH   3   7
ENDBRANCH   1   3
BRANCH   1  10
ATOM     10  C   UNL     1     -35.472 149.376   8.675  1.00  0.00    +0.148 A 
ATOM     11  N   UNL     1     -35.248 150.685   8.431  1.00  0.00    -0.194 NA
ATOM     12  C   UNL     1     -35.264 148.439   7.699  1.00  0.00    +0.103 A 
ATOM     13  C   UNL     1     -34.833 151.079   7.208  1.00  0.00    +0.227 A 
ATOM     14  C   UNL     1     -34.857 148.918   6.474  1.00  0.00    +0.065 A 
ATOM     15  S   UNL     1     -35.444 146.672   7.722  1.00  0.00    +0.059 S 
ATOM     16  N   UNL     1     -34.645 150.214   6.200  1.00  0.00    -0.217 NA
ATOM     17  C   UNL     1     -34.594 147.854   5.445  1.00  0.00    +0.072 C 
ATOM     18  O   UNL     1     -34.110 146.149   8.166  1.00  0.00    -0.254 OA
ATOM     19  C   UNL     1     -35.426 146.655   5.884  1.00  0.00    +0.117 C 
BRANCH  13  20
ATOM     20  N   UNL     1     -34.635 152.427   6.976  1.00  0.00    -0.341 N 
ATOM     21  C   UNL     1     -33.662 152.823   5.963  1.00  0.00    +0.120 C 
ATOM     22  C   UNL     1     -35.715 153.343   7.327  1.00  0.00    +0.120 C 
ATOM     23  C   UNL     1     -34.225 153.932   5.080  1.00  0.00    +0.033 C 
ATOM     24  C   UNL     1     -35.191 154.777   7.294  1.00  0.00    +0.033 C 
ATOM     25  C   UNL     1     -34.655 155.154   5.904  1.00  0.00    +0.061 C 
BRANCH  25  26
ATOM     26  C   UNL     1     -35.654 155.972   5.114  1.00  0.00    +0.131 A 
ATOM     27  N   UNL     1     -35.293 157.223   4.764  1.00  0.00    -0.240 NA
ATOM     28  N   UNL     1     -36.827 155.396   4.776  1.00  0.00    -0.240 NA
ATOM     29  C   UNL     1     -36.188 157.928   4.036  1.00  0.00    +0.135 A 
ATOM     30  C   UNL     1     -37.681 156.149   4.045  1.00  0.00    +0.135 A 
ATOM     31  C   UNL     1     -37.409 157.435   3.644  1.00  0.00    +0.077 A 
ATOM     32 Cl   UNL     1     -38.514 158.357   2.722  1.00  0.00    -0.081 Cl
ENDBRANCH  25  26
ENDBRANCH  13  20
ENDBRANCH   1  10
TORSDOF 6
ENDMDL
MODEL 8
REMARK VINA RESULT:    -7.457     16.362     18.860
REMARK INTER + INTRA:         -10.420
REMARK INTER:                  -9.478
REMARK INTRA:                  -0.941
REMARK UNBOUND:                -0.566
REMARK SMILES O=[S@@]1CCc2nc(N3CCC(c4ncc(Cl)cn4)CC3)nc(NC3(CO)CCC3)c21
REMARK SMILES IDX 23 1 24 3 28 4 27 5 29 6 25 7 26 8 22 10 21 11 30 12 7 13
REMARK SMILES IDX 5 14 2 15 6 16 4 17 1 18 3 19 8 20 9 21 20 22 10 23 19 24
REMARK SMILES IDX 11 25 12 26 13 27 18 28 14 29 17 30 15 31 16 32
REMARK H PARENT 23 2 26 9
ROOT
ATOM      1  N   UNL     1     -34.170 150.984   6.606  1.00  0.00    -0.361 N 
ATOM      2  H   UNL     1     -33.356 150.859   5.998  1.00  0.00    +0.162 HD
ENDROOT
BRANCH   1   3
ATOM      3  C   UNL     1     -34.956 152.122   6.152  1.00  0.00    +0.062 C 
ATOM      4  C   UNL     1     -36.875 152.918   6.781  1.00  0.00    +0.005 C 
ATOM      5  C   UNL     1     -36.443 151.741   5.890  1.00  0.00    +0.031 C 
ATOM      6  C   UNL     1     -35.473 152.901   7.409  1.00  0.00    +0.031 C 
BRANCH   3   7
ATOM      7  C   UNL     1     -34.204 152.980   5.123  1.00  0.00    +0.184 C 
BRANCH   7   8
ATOM      8  O   UNL     1     -33.633 152.174   4.095  1.00  0.00    -0.394 OA
ATOM      9  H   UNL     1     -33.737 151.246   4.370  1.00  0.00    +0.210 HD
ENDBRANCH   7   8
ENDBRANCH   3   7
ENDBRANCH   1   3
BRANCH   1  10
ATOM     10  C   UNL     1     -34.631 149.667   6.768  1.00  0.00    +0.148 A 
ATOM     11  N   UNL     1     -34.774 149.003   5.602  1.00  0.00    -0.194 NA
ATOM     12  C   UNL     1     -34.937 149.062   7.957  1.00  0.00    +0.103 A 
ATOM     13  C   UNL     1     -35.240 147.736   5.602  1.00  0.00    +0.227 A 
ATOM     14  C   UNL     1     -35.422 147.777   7.878  1.00  0.00    +0.065 A 
ATOM     15  S   UNL     1     -34.833 149.657   9.628  1.00  0.00    +0.059 S 
ATOM     16  N   UNL     1     -35.591 147.101   6.731  1.00  0.00    -0.217 NA
ATOM     17  C   UNL     1     -35.700 147.132   9.207  1.00  0.00    +0.072 C 
ATOM     18  O   UNL     1     -33.449 149.302  10.085  1.00  0.00    -0.254 OA
ATOM     19  C   UNL     1     -35.930 148.287  10.174  1.00  0.00    +0.117 C 
BRANCH  13  20
ATOM     20  N   UNL     1     -35.401 147.086   4.394  1.00  0.00    -0.341 N 
ATOM     21  C   UNL     1     -36.740 146.648   4.012  1.00  0.00    +0.120 C 
ATOM     22  C   UNL     1     -34.403 147.324   3.356  1.00  0.00    +0.120 C 
ATOM     23  C   UNL     1     -37.023 146.990   2.553  1.00  0.00    +0.033 C 
ATOM     24  C   UNL     1     -34.579 146.294   2.242  1.00  0.00    +0.033 C 
ATOM     25  C   UNL     1     -35.978 146.374   1.610  1.00  0.00    +0.061 C 
BRANCH  25  26
ATOM     26  C   UNL     1     -35.966 147.133   0.302  1.00  0.00    +0.131 A 
ATOM     27  N   UNL     1     -35.925 148.479   0.365  1.00  0.00    -0.240 NA
ATOM     28  N   UNL     1     -35.962 146.426  -0.848  1.00  0.00    -0.240 NA
ATOM     29  C   UNL     1     -35.887 149.139  -0.815  1.00  0.00    +0.135 A 
ATOM     30  C   UNL     1     -35.922 147.140  -1.997  1.00  0.00    +0.135 A 
ATOM     31  C   UNL     1     -35.883 148.513  -2.038  1.00  0.00    +0.077 A 
ATOM     32 Cl   UNL     1     -35.834 149.381  -3.509  1.00  0.00    -0.081 Cl
ENDBRANCH  25  26
ENDBRANCH  13  20
ENDBRANCH   1  10
TORSDOF 6
ENDMDL
MODEL 9
REMARK VINA RESULT:    -7.425     15.959     19.084
REMARK INTER + INTRA:         -10.378
REMARK INTER:                  -9.332
REMARK INTRA:                  -1.046
REMARK UNBOUND:                -0.566
REMARK SMILES O=[S@@]1CCc2nc(N3CCC(c4ncc(Cl)cn4)CC3)nc(NC3(CO)CCC3)c21
REMARK SMILES IDX 23 1 24 3 28 4 27 5 29 6 25 7 26 8 22 10 21 11 30 12 7 13
REMARK SMILES IDX 5 14 2 15 6 16 4 17 1 18 3 19 8 20 9 21 20 22 10 23 19 24
REMARK SMILES IDX 11 25 12 26 13 27 18 28 14 29 17 30 15 31 16 32
REMARK H PARENT 23 2 26 9
ROOT
ATOM      1  N   UNL     1     -36.716 148.603   1.717  1.00  0.00    -0.361 N 
ATOM      2  H   UNL     1     -36.853 149.613   1.634  1.00  0.00    +0.162 HD
ENDROOT
BRANCH   1   3
ATOM      3  C   UNL     1     -35.461 148.220   1.086  1.00  0.00    +0.062 C 
ATOM      4  C   UNL     1     -34.959 147.663  -0.951  1.00  0.00    +0.005 C 
ATOM      5  C   UNL     1     -35.603 146.925   0.235  1.00  0.00    +0.031 C 
ATOM      6  C   UNL     1     -35.335 148.989  -0.273  1.00  0.00    +0.031 C 
BRANCH   3   7
ATOM      7  C   UNL     1     -34.260 148.376   2.031  1.00  0.00    +0.184 C 
BRANCH   7   8
ATOM      8  O   UNL     1     -34.005 149.747   2.323  1.00  0.00    -0.394 OA
ATOM      9  H   UNL     1     -34.753 150.258   1.968  1.00  0.00    +0.210 HD
ENDBRANCH   7   8
ENDBRANCH   3   7
ENDBRANCH   1   3
BRANCH   1  10
ATOM     10  C   UNL     1     -37.086 148.355   3.049  1.00  0.00    +0.148 A 
ATOM     11  N   UNL     1     -36.929 149.427   3.855  1.00  0.00    -0.194 NA
ATOM     12  C   UNL     1     -37.551 147.169   3.549  1.00  0.00    +0.103 A 
ATOM     13  C   UNL     1     -37.215 149.326   5.171  1.00  0.00    +0.227 A 
ATOM     14  C   UNL     1     -37.805 147.137   4.901  1.00  0.00    +0.065 A 
ATOM     15  S   UNL     1     -37.880 145.617   2.750  1.00  0.00    +0.059 S 
ATOM     16  N   UNL     1     -37.640 148.181   5.727  1.00  0.00    -0.217 NA
ATOM     17  C   UNL     1     -38.359 145.832   5.400  1.00  0.00    +0.072 C 
ATOM     18  O   UNL     1     -39.308 145.704   2.297  1.00  0.00    -0.254 OA
ATOM     19  C   UNL     1     -37.902 144.787   4.390  1.00  0.00    +0.117 C 
BRANCH  13  20
ATOM     20  N   UNL     1     -37.022 150.429   5.980  1.00  0.00    -0.341 N 
ATOM     21  C   UNL     1     -36.016 150.352   7.034  1.00  0.00    +0.120 C 
ATOM     22  C   UNL     1     -37.408 151.734   5.452  1.00  0.00    +0.120 C 
ATOM     23  C   UNL     1     -35.170 151.621   7.064  1.00  0.00    +0.033 C 
ATOM     24  C   UNL     1     -37.414 152.755   6.588  1.00  0.00    +0.033 C 
ATOM     25  C   UNL     1     -36.032 152.878   7.250  1.00  0.00    +0.061 C 
BRANCH  25  26
ATOM     26  C   UNL     1     -35.274 154.091   6.758  1.00  0.00    +0.131 A 
ATOM     27  N   UNL     1     -35.893 155.286   6.843  1.00  0.00    -0.240 NA
ATOM     28  N   UNL     1     -34.018 153.917   6.298  1.00  0.00    -0.240 NA
ATOM     29  C   UNL     1     -35.189 156.362   6.424  1.00  0.00    +0.135 A 
ATOM     30  C   UNL     1     -33.362 155.029   5.894  1.00  0.00    +0.135 A 
ATOM     31  C   UNL     1     -33.907 156.290   5.936  1.00  0.00    +0.077 A 
ATOM     32 Cl   UNL     1     -33.048 157.673   5.416  1.00  0.00    -0.081 Cl
ENDBRANCH  25  26
ENDBRANCH  13  20
ENDBRANCH   1  10
TORSDOF 6
ENDMDL
MODEL 10
REMARK VINA RESULT:    -7.423     15.571     18.199
REMARK INTER + INTRA:         -10.376
REMARK INTER:                  -9.125
REMARK INTRA:                  -1.251
REMARK UNBOUND:                -0.566
REMARK SMILES O=[S@@]1CCc2nc(N3CCC(c4ncc(Cl)cn4)CC3)nc(NC3(CO)CCC3)c21
REMARK SMILES IDX 23 1 24 3 28 4 27 5 29 6 25 7 26 8 22 10 21 11 30 12 7 13
REMARK SMILES IDX 5 14 2 15 6 16 4 17 1 18 3 19 8 20 9 21 20 22 10 23 19 24
REMARK SMILES IDX 11 25 12 26 13 27 18 28 14 29 17 30 15 31 16 32
REMARK H PARENT 23 2 26 9
ROOT
ATOM      1  N   UNL     1     -37.710 147.819  -1.404  1.00  0.00    -0.361 N 
ATOM      2  H   UNL     1     -37.919 148.802  -1.597  1.00  0.00    +0.162 HD
ENDROOT
BRANCH   1   3
ATOM      3  C   UNL     1     -36.276 147.646  -1.218  1.00  0.00    +0.062 C 
ATOM      4  C   UNL     1     -34.946 145.971  -1.585  1.00  0.00    +0.005 C 
ATOM      5  C   UNL     1     -35.937 146.327  -0.465  1.00  0.00    +0.031 C 
ATOM      6  C   UNL     1     -35.689 146.959  -2.497  1.00  0.00    +0.031 C 
BRANCH   3   7
ATOM      7  C   UNL     1     -35.578 148.951  -0.806  1.00  0.00    +0.184 C 
BRANCH   7   8
ATOM      8  O   UNL     1     -35.881 149.297   0.543  1.00  0.00    -0.394 OA
ATOM      9  H   UNL     1     -36.131 150.236   0.547  1.00  0.00    +0.210 HD
ENDBRANCH   7   8
ENDBRANCH   3   7
ENDBRANCH   1   3
BRANCH   1  10
ATOM     10  C   UNL     1     -38.715 147.470  -0.487  1.00  0.00    +0.148 A 
ATOM     11  N   UNL     1     -38.693 148.214   0.639  1.00  0.00    -0.194 NA
ATOM     12  C   UNL     1     -39.644 146.478  -0.650  1.00  0.00    +0.103 A 
ATOM     13  C   UNL     1     -39.583 147.968   1.625  1.00  0.00    +0.227 A 
ATOM     14  C   UNL     1     -40.507 146.275   0.402  1.00  0.00    +0.065 A 
ATOM     15  S   UNL     1     -39.936 145.366  -2.004  1.00  0.00    +0.059 S 
ATOM     16  N   UNL     1     -40.495 146.987   1.540  1.00  0.00    -0.217 NA
ATOM     17  C   UNL     1     -41.542 145.211   0.164  1.00  0.00    +0.072 C 
ATOM     18  O   UNL     1     -40.905 146.083  -2.898  1.00  0.00    -0.254 OA
ATOM     19  C   UNL     1     -40.942 144.297  -0.897  1.00  0.00    +0.117 C 
BRANCH  13  20
ATOM     20  N   UNL     1     -39.524 148.726   2.778  1.00  0.00    -0.341 N 
ATOM     21  C   UNL     1     -39.065 148.088   4.008  1.00  0.00    +0.120 C 
ATOM     22  C   UNL     1     -39.402 150.173   2.635  1.00  0.00    +0.120 C 
ATOM     23  C   UNL     1     -38.075 148.986   4.743  1.00  0.00    +0.033 C 
ATOM     24  C   UNL     1     -39.669 150.838   3.983  1.00  0.00    +0.033 C 
ATOM     25  C   UNL     1     -38.678 150.363   5.057  1.00  0.00    +0.061 C 
BRANCH  25  26
ATOM     26  C   UNL     1     -37.566 151.363   5.285  1.00  0.00    +0.131 A 
ATOM     27  N   UNL     1     -37.863 152.668   5.127  1.00  0.00    -0.240 NA
ATOM     28  N   UNL     1     -36.356 150.899   5.665  1.00  0.00    -0.240 NA
ATOM     29  C   UNL     1     -36.864 153.548   5.362  1.00  0.00    +0.135 A 
ATOM     30  C   UNL     1     -35.396 151.827   5.887  1.00  0.00    +0.135 A 
ATOM     31  C   UNL     1     -35.598 153.179   5.749  1.00  0.00    +0.077 A 
ATOM     32 Cl   UNL     1     -34.361 154.321   6.037  1.00  0.00    -0.081 Cl
ENDBRANCH  25  26
ENDBRANCH  13  20
ENDBRANCH   1  10
TORSDOF 6
ENDMDL
