MODEL 1
REMARK VINA RESULT:    -9.458      0.000      0.000
REMARK INTER + INTRA:         -12.313
REMARK INTER:                 -11.946
REMARK INTRA:                  -0.367
REMARK UNBOUND:                -0.367
REMARK SMILES Cn1cc(-c2cc3c(N4CCN(c5ncc([C@@](C)(N)c6ccc(F)cc6)cn5)CC4)ncnn3c2)cn1
REMARK SMILES IDX 13 1 14 2 15 3 16 4 27 5 28 6 12 7 5 8 6 9 35 10 7 11 34 12
REMARK SMILES IDX 8 13 33 14 9 15 31 16 32 17 10 18 30 19 11 20 29 21 4 22
REMARK SMILES IDX 2 23 3 24 37 25 36 26 1 27 17 28 18 29 19 30 20 33 21 34
REMARK SMILES IDX 26 35 22 36 25 37 23 38 24 39
REMARK H PARENT 19 31 19 32
ROOT
ATOM      1  C   UNL     1     -38.851 158.119   2.741  1.00  0.00    +0.225 A 
ATOM      2  N   UNL     1     -40.173 158.328   2.831  1.00  0.00    -0.221 NA
ATOM      3  C   UNL     1     -40.765 159.054   1.858  1.00  0.00    +0.122 A 
ATOM      4  C   UNL     1     -40.108 159.609   0.778  1.00  0.00    +0.013 A 
ATOM      5  C   UNL     1     -38.762 159.315   0.766  1.00  0.00    +0.122 A 
ATOM      6  N   UNL     1     -38.125 158.599   1.720  1.00  0.00    -0.221 NA
ENDROOT
BRANCH   1   7
ATOM      7  N   UNL     1     -38.217 157.350   3.722  1.00  0.00    -0.337 N 
ATOM      8  C   UNL     1     -35.571 151.513   6.678  1.00  0.00    +0.005 A 
ATOM      9  C   UNL     1     -36.194 152.693   6.196  1.00  0.00    +0.042 A 
ATOM     10  C   UNL     1     -34.231 151.793   6.818  1.00  0.00    +0.122 A 
ATOM     11  C   UNL     1     -35.204 153.647   6.028  1.00  0.00    +0.108 A 
ATOM     12  N   UNL     1     -34.029 153.095   6.452  1.00  0.00    -0.235 N 
ATOM     13  C   UNL     1     -35.179 155.018   5.586  1.00  0.00    +0.156 C 
ATOM     14  N   UNL     1     -32.857 153.741   6.522  1.00  0.00    -0.156 NA
ATOM     15  N   UNL     1     -36.249 155.729   5.061  1.00  0.00    -0.351 N 
ATOM     16  N   UNL     1     -34.036 155.640   5.690  1.00  0.00    -0.215 NA
ATOM     17  C   UNL     1     -32.928 154.978   6.149  1.00  0.00    +0.247 C 
ATOM     18  C   UNL     1     -36.432 157.148   5.431  1.00  0.00    +0.139 C 
ATOM     19  C   UNL     1     -37.462 155.112   4.510  1.00  0.00    +0.139 C 
ATOM     20  C   UNL     1     -36.999 157.976   4.262  1.00  0.00    +0.141 C 
ATOM     21  C   UNL     1     -38.050 155.939   3.346  1.00  0.00    +0.141 C 
BRANCH   8  22
ATOM     22  C   UNL     1     -36.242 150.257   6.977  1.00  0.00    +0.021 A 
ATOM     23  N   UNL     1     -37.584 148.530   6.998  1.00  0.00    -0.275 N 
ATOM     24  C   UNL     1     -37.340 149.708   6.357  1.00  0.00    +0.117 A 
ATOM     25  N   UNL     1     -36.720 148.272   7.999  1.00  0.00    -0.181 NA
ATOM     26  C   UNL     1     -35.900 149.329   7.982  1.00  0.00    +0.143 A 
ATOM     27  C   UNL     1     -38.637 147.586   6.710  1.00  0.00    +0.173 C 
ENDBRANCH   8  22
ENDBRANCH   1   7
BRANCH   4  28
ATOM     28  C   UNL     1     -40.829 160.414  -0.295  1.00  0.00    +0.067 C 
ATOM     29  C   UNL     1     -42.151 159.756  -0.769  1.00  0.00    +0.038 C 
BRANCH  28  30
ATOM     30  N   UNL     1     -41.244 161.688   0.314  1.00  0.00    -0.318 NA
ATOM     31  H   UNL     1     -40.672 162.449  -0.046  1.00  0.00    +0.120 HD
ATOM     32  H   UNL     1     -41.113 161.653   1.323  1.00  0.00    +0.120 HD
ENDBRANCH  28  30
BRANCH  28  33
ATOM     33  C   UNL     1     -39.948 160.608  -1.556  1.00  0.00    -0.024 A 
ATOM     34  C   UNL     1     -39.742 161.911  -2.064  1.00  0.00    +0.009 A 
ATOM     35  C   UNL     1     -39.336 159.537  -2.238  1.00  0.00    +0.009 A 
ATOM     36  C   UNL     1     -38.960 162.132  -3.200  1.00  0.00    +0.039 A 
ATOM     37  C   UNL     1     -38.552 159.761  -3.375  1.00  0.00    +0.039 A 
ATOM     38  C   UNL     1     -38.371 161.055  -3.844  1.00  0.00    +0.123 A 
ATOM     39  F   UNL     1     -37.620 161.264  -4.933  1.00  0.00    -0.207 F 
ENDBRANCH  28  33
ENDBRANCH   4  28
TORSDOF 5
ENDMDL
MODEL 2
REMARK VINA RESULT:    -8.935      4.149     12.139
REMARK INTER + INTRA:         -11.652
REMARK INTER:                 -10.838
REMARK INTRA:                  -0.814
REMARK UNBOUND:                -0.367
REMARK SMILES Cn1cc(-c2cc3c(N4CCN(c5ncc([C@@](C)(N)c6ccc(F)cc6)cn5)CC4)ncnn3c2)cn1
REMARK SMILES IDX 13 1 14 2 15 3 16 4 27 5 28 6 12 7 5 8 6 9 35 10 7 11 34 12
REMARK SMILES IDX 8 13 33 14 9 15 31 16 32 17 10 18 30 19 11 20 29 21 4 22
REMARK SMILES IDX 2 23 3 24 37 25 36 26 1 27 17 28 18 29 19 30 20 33 21 34
REMARK SMILES IDX 26 35 22 36 25 37 23 38 24 39
REMARK H PARENT 19 31 19 32
ROOT
ATOM      1  C   UNL     1     -37.743 149.593   6.217  1.00  0.00    +0.225 A 
ATOM      2  N   UNL     1     -39.020 149.492   6.613  1.00  0.00    -0.221 NA
ATOM      3  C   UNL     1     -39.430 148.313   7.130  1.00  0.00    +0.122 A 
ATOM      4  C   UNL     1     -38.632 147.195   7.273  1.00  0.00    +0.013 A 
ATOM      5  C   UNL     1     -37.335 147.411   6.861  1.00  0.00    +0.122 A 
ATOM      6  N   UNL     1     -36.882 148.570   6.332  1.00  0.00    -0.221 NA
ENDROOT
BRANCH   1   7
ATOM      7  N   UNL     1     -37.286 150.809   5.701  1.00  0.00    -0.337 N 
ATOM      8  C   UNL     1     -37.747 157.495   3.486  1.00  0.00    +0.005 A 
ATOM      9  C   UNL     1     -37.613 156.117   3.797  1.00  0.00    +0.042 A 
ATOM     10  C   UNL     1     -36.924 158.184   4.347  1.00  0.00    +0.122 A 
ATOM     11  C   UNL     1     -36.732 156.014   4.862  1.00  0.00    +0.108 A 
ATOM     12  N   UNL     1     -36.293 157.275   5.151  1.00  0.00    -0.235 N 
ATOM     13  C   UNL     1     -36.185 154.923   5.625  1.00  0.00    +0.156 C 
ATOM     14  N   UNL     1     -35.364 157.575   6.068  1.00  0.00    -0.156 NA
ATOM     15  N   UNL     1     -36.551 153.588   5.526  1.00  0.00    -0.351 N 
ATOM     16  N   UNL     1     -35.259 155.230   6.494  1.00  0.00    -0.215 NA
ATOM     17  C   UNL     1     -34.891 156.537   6.680  1.00  0.00    +0.247 C 
ATOM     18  C   UNL     1     -35.513 152.540   5.609  1.00  0.00    +0.139 C 
ATOM     19  C   UNL     1     -37.803 153.118   4.923  1.00  0.00    +0.139 C 
ATOM     20  C   UNL     1     -36.033 151.275   6.318  1.00  0.00    +0.141 C 
ATOM     21  C   UNL     1     -38.330 151.841   5.613  1.00  0.00    +0.141 C 
BRANCH   8  22
ATOM     22  C   UNL     1     -38.590 158.053   2.440  1.00  0.00    +0.021 A 
ATOM     23  N   UNL     1     -39.385 158.844   0.561  1.00  0.00    -0.275 N 
ATOM     24  C   UNL     1     -38.256 158.338   1.136  1.00  0.00    +0.117 A 
ATOM     25  N   UNL     1     -40.434 158.912   1.403  1.00  0.00    -0.181 NA
ATOM     26  C   UNL     1     -39.945 158.426   2.550  1.00  0.00    +0.143 A 
ATOM     27  C   UNL     1     -39.540 159.290  -0.802  1.00  0.00    +0.173 C 
ENDBRANCH   8  22
ENDBRANCH   1   7
BRANCH   4  28
ATOM     28  C   UNL     1     -39.146 145.892   7.870  1.00  0.00    +0.067 C 
ATOM     29  C   UNL     1     -38.209 144.685   7.606  1.00  0.00    +0.038 C 
BRANCH  28  30
ATOM     30  N   UNL     1     -39.150 146.049   9.333  1.00  0.00    -0.318 NA
ATOM     31  H   UNL     1     -39.488 146.975   9.584  1.00  0.00    +0.120 HD
ATOM     32  H   UNL     1     -38.204 145.956   9.698  1.00  0.00    +0.120 HD
ENDBRANCH  28  30
BRANCH  28  33
ATOM     33  C   UNL     1     -40.537 145.510   7.302  1.00  0.00    -0.024 A 
ATOM     34  C   UNL     1     -41.676 145.604   8.134  1.00  0.00    +0.009 A 
ATOM     35  C   UNL     1     -40.731 145.062   5.979  1.00  0.00    +0.009 A 
ATOM     36  C   UNL     1     -42.948 145.267   7.664  1.00  0.00    +0.039 A 
ATOM     37  C   UNL     1     -42.005 144.725   5.511  1.00  0.00    +0.039 A 
ATOM     38  C   UNL     1     -43.101 144.831   6.357  1.00  0.00    +0.123 A 
ATOM     39  F   UNL     1     -44.319 144.507   5.905  1.00  0.00    -0.207 F 
ENDBRANCH  28  33
ENDBRANCH   4  28
TORSDOF 5
ENDMDL
MODEL 3
REMARK VINA RESULT:    -8.786      7.290     11.165
REMARK INTER + INTRA:         -11.464
REMARK INTER:                 -10.750
REMARK INTRA:                  -0.714
REMARK UNBOUND:                -0.367
REMARK SMILES Cn1cc(-c2cc3c(N4CCN(c5ncc([C@@](C)(N)c6ccc(F)cc6)cn5)CC4)ncnn3c2)cn1
REMARK SMILES IDX 13 1 14 2 15 3 16 4 27 5 28 6 12 7 5 8 6 9 35 10 7 11 34 12
REMARK SMILES IDX 8 13 33 14 9 15 31 16 32 17 10 18 30 19 11 20 29 21 4 22
REMARK SMILES IDX 2 23 3 24 37 25 36 26 1 27 17 28 18 29 19 30 20 33 21 34
REMARK SMILES IDX 26 35 22 36 25 37 23 38 24 39
REMARK H PARENT 19 31 19 32
ROOT
ATOM      1  C   UNL     1     -38.719 146.543   0.497  1.00  0.00    +0.225 A 
ATOM      2  N   UNL     1     -38.181 145.793  -0.476  1.00  0.00    -0.221 NA
ATOM      3  C   UNL     1     -39.021 145.116  -1.289  1.00  0.00    +0.122 A 
ATOM      4  C   UNL     1     -40.398 145.129  -1.186  1.00  0.00    +0.013 A 
ATOM      5  C   UNL     1     -40.849 145.948  -0.174  1.00  0.00    +0.122 A 
ATOM      6  N   UNL     1     -40.047 146.638   0.667  1.00  0.00    -0.221 NA
ENDROOT
BRANCH   1   7
ATOM      7  N   UNL     1     -37.874 147.274   1.337  1.00  0.00    -0.337 N 
ATOM      8  C   UNL     1     -36.172 151.754   6.519  1.00  0.00    +0.005 A 
ATOM      9  C   UNL     1     -36.447 150.944   5.387  1.00  0.00    +0.042 A 
ATOM     10  C   UNL     1     -35.473 150.975   7.411  1.00  0.00    +0.122 A 
ATOM     11  C   UNL     1     -35.931 149.684   5.641  1.00  0.00    +0.108 A 
ATOM     12  N   UNL     1     -35.307 149.736   6.855  1.00  0.00    -0.235 N 
ATOM     13  C   UNL     1     -35.874 148.444   4.911  1.00  0.00    +0.156 C 
ATOM     14  N   UNL     1     -34.613 148.732   7.407  1.00  0.00    -0.156 NA
ATOM     15  N   UNL     1     -36.498 148.175   3.701  1.00  0.00    -0.351 N 
ATOM     16  N   UNL     1     -35.169 147.486   5.450  1.00  0.00    -0.215 NA
ATOM     17  C   UNL     1     -34.573 147.668   6.671  1.00  0.00    +0.247 C 
ATOM     18  C   UNL     1     -35.791 147.378   2.678  1.00  0.00    +0.139 C 
ATOM     19  C   UNL     1     -37.618 148.954   3.158  1.00  0.00    +0.139 C 
ATOM     20  C   UNL     1     -36.758 146.483   1.881  1.00  0.00    +0.141 C 
ATOM     21  C   UNL     1     -38.589 148.072   2.343  1.00  0.00    +0.141 C 
BRANCH   8  22
ATOM     22  C   UNL     1     -36.554 153.149   6.681  1.00  0.00    +0.021 A 
ATOM     23  N   UNL     1     -36.568 155.326   6.889  1.00  0.00    -0.275 N 
ATOM     24  C   UNL     1     -35.739 154.257   6.720  1.00  0.00    +0.117 A 
ATOM     25  N   UNL     1     -37.870 154.992   6.965  1.00  0.00    -0.181 NA
ATOM     26  C   UNL     1     -37.858 153.661   6.836  1.00  0.00    +0.143 A 
ATOM     27  C   UNL     1     -36.185 156.714   6.989  1.00  0.00    +0.173 C 
ENDBRANCH   8  22
ENDBRANCH   1   7
BRANCH   4  28
ATOM     28  C   UNL     1     -41.297 144.349  -2.136  1.00  0.00    +0.067 C 
ATOM     29  C   UNL     1     -40.802 142.904  -2.401  1.00  0.00    +0.038 C 
BRANCH  28  30
ATOM     30  N   UNL     1     -42.600 144.182  -1.473  1.00  0.00    -0.318 NA
ATOM     31  H   UNL     1     -42.516 144.393  -0.481  1.00  0.00    +0.120 HD
ATOM     32  H   UNL     1     -42.915 143.217  -1.558  1.00  0.00    +0.120 HD
ENDBRANCH  28  30
BRANCH  28  33
ATOM     33  C   UNL     1     -41.411 145.043  -3.518  1.00  0.00    -0.024 A 
ATOM     34  C   UNL     1     -41.726 144.270  -4.659  1.00  0.00    +0.009 A 
ATOM     35  C   UNL     1     -41.208 146.426  -3.703  1.00  0.00    +0.009 A 
ATOM     36  C   UNL     1     -41.835 144.853  -5.923  1.00  0.00    +0.039 A 
ATOM     37  C   UNL     1     -41.318 147.007  -4.971  1.00  0.00    +0.039 A 
ATOM     38  C   UNL     1     -41.631 146.217  -6.068  1.00  0.00    +0.123 A 
ATOM     39  F   UNL     1     -41.734 146.778  -7.279  1.00  0.00    -0.207 F 
ENDBRANCH  28  33
ENDBRANCH   4  28
TORSDOF 5
ENDMDL
MODEL 4
REMARK VINA RESULT:    -8.727      6.895     11.719
REMARK INTER + INTRA:         -11.391
REMARK INTER:                 -10.643
REMARK INTRA:                  -0.748
REMARK UNBOUND:                -0.367
REMARK SMILES Cn1cc(-c2cc3c(N4CCN(c5ncc([C@@](C)(N)c6ccc(F)cc6)cn5)CC4)ncnn3c2)cn1
REMARK SMILES IDX 13 1 14 2 15 3 16 4 27 5 28 6 12 7 5 8 6 9 35 10 7 11 34 12
REMARK SMILES IDX 8 13 33 14 9 15 31 16 32 17 10 18 30 19 11 20 29 21 4 22
REMARK SMILES IDX 2 23 3 24 37 25 36 26 1 27 17 28 18 29 19 30 20 33 21 34
REMARK SMILES IDX 26 35 22 36 25 37 23 38 24 39
REMARK H PARENT 19 31 19 32
ROOT
ATOM      1  C   UNL     1     -37.931 149.830   4.360  1.00  0.00    +0.225 A 
ATOM      2  N   UNL     1     -36.701 149.323   4.529  1.00  0.00    -0.221 NA
ATOM      3  C   UNL     1     -35.827 150.024   5.284  1.00  0.00    +0.122 A 
ATOM      4  C   UNL     1     -36.102 151.235   5.888  1.00  0.00    +0.013 A 
ATOM      5  C   UNL     1     -37.397 151.654   5.674  1.00  0.00    +0.122 A 
ATOM      6  N   UNL     1     -38.303 150.990   4.922  1.00  0.00    -0.221 NA
ENDROOT
BRANCH   1   7
ATOM      7  N   UNL     1     -38.863 149.112   3.605  1.00  0.00    -0.337 N 
ATOM      8  C   UNL     1     -41.239 145.288  -1.831  1.00  0.00    +0.005 A 
ATOM      9  C   UNL     1     -40.858 146.157  -0.776  1.00  0.00    +0.042 A 
ATOM     10  C   UNL     1     -41.614 144.096  -1.256  1.00  0.00    +0.122 A 
ATOM     11  C   UNL     1     -40.985 145.452   0.410  1.00  0.00    +0.108 A 
ATOM     12  N   UNL     1     -41.486 144.220   0.100  1.00  0.00    -0.235 N 
ATOM     13  C   UNL     1     -40.768 145.757   1.801  1.00  0.00    +0.156 C 
ATOM     14  N   UNL     1     -41.825 143.281   0.993  1.00  0.00    -0.156 NA
ATOM     15  N   UNL     1     -40.208 146.922   2.307  1.00  0.00    -0.351 N 
ATOM     16  N   UNL     1     -41.133 144.842   2.658  1.00  0.00    -0.215 NA
ATOM     17  C   UNL     1     -41.641 143.647   2.220  1.00  0.00    +0.247 C 
ATOM     18  C   UNL     1     -40.762 147.520   3.539  1.00  0.00    +0.139 C 
ATOM     19  C   UNL     1     -39.399 147.859   1.520  1.00  0.00    +0.139 C 
ATOM     20  C   UNL     1     -39.665 148.170   4.403  1.00  0.00    +0.141 C 
ATOM     21  C   UNL     1     -38.303 148.531   2.376  1.00  0.00    +0.141 C 
BRANCH   8  22
ATOM     22  C   UNL     1     -41.239 145.619  -3.248  1.00  0.00    +0.021 A 
ATOM     23  N   UNL     1     -41.500 145.614  -5.420  1.00  0.00    -0.275 N 
ATOM     24  C   UNL     1     -41.741 144.881  -4.296  1.00  0.00    +0.117 A 
ATOM     25  N   UNL     1     -40.872 146.781  -5.179  1.00  0.00    -0.181 NA
ATOM     26  C   UNL     1     -40.716 146.781  -3.850  1.00  0.00    +0.143 A 
ATOM     27  C   UNL     1     -41.843 145.261  -6.777  1.00  0.00    +0.173 C 
ENDBRANCH   8  22
ENDBRANCH   1   7
BRANCH   4  28
ATOM     28  C   UNL     1     -35.078 151.979   6.734  1.00  0.00    +0.067 C 
ATOM     29  C   UNL     1     -35.285 151.783   8.259  1.00  0.00    +0.038 C 
BRANCH  28  30
ATOM     30  N   UNL     1     -33.761 151.385   6.457  1.00  0.00    -0.318 NA
ATOM     31  H   UNL     1     -33.351 151.816   5.631  1.00  0.00    +0.120 HD
ATOM     32  H   UNL     1     -33.858 150.389   6.270  1.00  0.00    +0.120 HD
ENDBRANCH  28  30
BRANCH  28  33
ATOM     33  C   UNL     1     -35.117 153.506   6.471  1.00  0.00    -0.024 A 
ATOM     34  C   UNL     1     -34.345 154.049   5.418  1.00  0.00    +0.009 A 
ATOM     35  C   UNL     1     -35.890 154.400   7.241  1.00  0.00    +0.009 A 
ATOM     36  C   UNL     1     -34.347 155.419   5.148  1.00  0.00    +0.039 A 
ATOM     37  C   UNL     1     -35.891 155.772   6.968  1.00  0.00    +0.039 A 
ATOM     38  C   UNL     1     -35.121 156.268   5.925  1.00  0.00    +0.123 A 
ATOM     39  F   UNL     1     -35.125 157.582   5.667  1.00  0.00    -0.207 F 
ENDBRANCH  28  33
ENDBRANCH   4  28
TORSDOF 5
ENDMDL
MODEL 5
REMARK VINA RESULT:    -8.690      5.431      9.988
REMARK INTER + INTRA:         -11.343
REMARK INTER:                 -10.704
REMARK INTRA:                  -0.639
REMARK UNBOUND:                -0.367
REMARK SMILES Cn1cc(-c2cc3c(N4CCN(c5ncc([C@@](C)(N)c6ccc(F)cc6)cn5)CC4)ncnn3c2)cn1
REMARK SMILES IDX 13 1 14 2 15 3 16 4 27 5 28 6 12 7 5 8 6 9 35 10 7 11 34 12
REMARK SMILES IDX 8 13 33 14 9 15 31 16 32 17 10 18 30 19 11 20 29 21 4 22
REMARK SMILES IDX 2 23 3 24 37 25 36 26 1 27 17 28 18 29 19 30 20 33 21 34
REMARK SMILES IDX 26 35 22 36 25 37 23 38 24 39
REMARK H PARENT 19 31 19 32
ROOT
ATOM      1  C   UNL     1     -37.846 151.639   5.022  1.00  0.00    +0.225 A 
ATOM      2  N   UNL     1     -38.069 152.927   4.721  1.00  0.00    -0.221 NA
ATOM      3  C   UNL     1     -37.081 153.814   4.972  1.00  0.00    +0.122 A 
ATOM      4  C   UNL     1     -35.858 153.495   5.528  1.00  0.00    +0.013 A 
ATOM      5  C   UNL     1     -35.721 152.147   5.775  1.00  0.00    +0.122 A 
ATOM      6  N   UNL     1     -36.683 151.224   5.547  1.00  0.00    -0.221 NA
ENDROOT
BRANCH   1   7
ATOM      7  N   UNL     1     -38.841 150.696   4.749  1.00  0.00    -0.337 N 
ATOM      8  C   UNL     1     -41.767 145.066   1.656  1.00  0.00    +0.005 A 
ATOM      9  C   UNL     1     -41.284 146.276   2.218  1.00  0.00    +0.042 A 
ATOM     10  C   UNL     1     -42.015 144.208   2.703  1.00  0.00    +0.122 A 
ATOM     11  C   UNL     1     -41.225 146.104   3.591  1.00  0.00    +0.108 A 
ATOM     12  N   UNL     1     -41.714 144.859   3.867  1.00  0.00    -0.235 N 
ATOM     13  C   UNL     1     -40.837 146.933   4.703  1.00  0.00    +0.156 C 
ATOM     14  N   UNL     1     -41.894 144.359   5.097  1.00  0.00    -0.156 NA
ATOM     15  N   UNL     1     -40.261 148.193   4.624  1.00  0.00    -0.351 N 
ATOM     16  N   UNL     1     -41.049 146.441   5.894  1.00  0.00    -0.215 NA
ATOM     17  C   UNL     1     -41.563 145.180   6.040  1.00  0.00    +0.247 C 
ATOM     18  C   UNL     1     -40.669 149.242   5.582  1.00  0.00    +0.139 C 
ATOM     19  C   UNL     1     -39.600 148.726   3.427  1.00  0.00    +0.139 C 
ATOM     20  C   UNL     1     -39.494 150.163   5.957  1.00  0.00    +0.141 C 
ATOM     21  C   UNL     1     -38.428 149.664   3.787  1.00  0.00    +0.141 C 
BRANCH   8  22
ATOM     22  C   UNL     1     -41.969 144.805   0.239  1.00  0.00    +0.021 A 
ATOM     23  N   UNL     1     -41.761 144.652  -1.933  1.00  0.00    -0.275 N 
ATOM     24  C   UNL     1     -41.122 145.084  -0.808  1.00  0.00    +0.117 A 
ATOM     25  N   UNL     1     -42.971 144.111  -1.692  1.00  0.00    -0.181 NA
ATOM     26  C   UNL     1     -43.094 144.206  -0.363  1.00  0.00    +0.143 A 
ATOM     27  C   UNL     1     -41.274 144.722  -3.289  1.00  0.00    +0.173 C 
ENDBRANCH   8  22
ENDBRANCH   1   7
BRANCH   4  28
ATOM     28  C   UNL     1     -34.778 154.537   5.783  1.00  0.00    +0.067 C 
ATOM     29  C   UNL     1     -34.059 154.354   7.145  1.00  0.00    +0.038 C 
BRANCH  28  30
ATOM     30  N   UNL     1     -33.724 154.336   4.776  1.00  0.00    -0.318 NA
ATOM     31  H   UNL     1     -33.620 153.345   4.573  1.00  0.00    +0.120 HD
ATOM     32  H   UNL     1     -32.832 154.675   5.129  1.00  0.00    +0.120 HD
ENDBRANCH  28  30
BRANCH  28  33
ATOM     33  C   UNL     1     -35.355 155.976   5.772  1.00  0.00    -0.024 A 
ATOM     34  C   UNL     1     -35.819 156.547   6.980  1.00  0.00    +0.009 A 
ATOM     35  C   UNL     1     -35.448 156.759   4.603  1.00  0.00    +0.009 A 
ATOM     36  C   UNL     1     -36.349 157.838   7.015  1.00  0.00    +0.039 A 
ATOM     37  C   UNL     1     -35.979 158.052   4.641  1.00  0.00    +0.039 A 
ATOM     38  C   UNL     1     -36.424 158.580   5.846  1.00  0.00    +0.123 A 
ATOM     39  F   UNL     1     -36.932 159.818   5.877  1.00  0.00    -0.207 F 
ENDBRANCH  28  33
ENDBRANCH   4  28
TORSDOF 5
ENDMDL
MODEL 6
REMARK VINA RESULT:    -8.458      7.205     10.803
REMARK INTER + INTRA:         -11.050
REMARK INTER:                 -10.340
REMARK INTRA:                  -0.710
REMARK UNBOUND:                -0.367
REMARK SMILES Cn1cc(-c2cc3c(N4CCN(c5ncc([C@@](C)(N)c6ccc(F)cc6)cn5)CC4)ncnn3c2)cn1
REMARK SMILES IDX 13 1 14 2 15 3 16 4 27 5 28 6 12 7 5 8 6 9 35 10 7 11 34 12
REMARK SMILES IDX 8 13 33 14 9 15 31 16 32 17 10 18 30 19 11 20 29 21 4 22
REMARK SMILES IDX 2 23 3 24 37 25 36 26 1 27 17 28 18 29 19 30 20 33 21 34
REMARK SMILES IDX 26 35 22 36 25 37 23 38 24 39
REMARK H PARENT 19 31 19 32
ROOT
ATOM      1  C   UNL     1     -39.962 146.423   1.690  1.00  0.00    +0.225 A 
ATOM      2  N   UNL     1     -38.976 145.961   0.907  1.00  0.00    -0.221 NA
ATOM      3  C   UNL     1     -39.319 145.242  -0.183  1.00  0.00    +0.122 A 
ATOM      4  C   UNL     1     -40.615 144.935  -0.549  1.00  0.00    +0.013 A 
ATOM      5  C   UNL     1     -41.551 145.477   0.305  1.00  0.00    +0.122 A 
ATOM      6  N   UNL     1     -41.255 146.196   1.410  1.00  0.00    -0.221 NA
ENDROOT
BRANCH   1   7
ATOM      7  N   UNL     1     -39.636 147.192   2.811  1.00  0.00    -0.337 N 
ATOM      8  C   UNL     1     -35.454 149.990   7.761  1.00  0.00    +0.005 A 
ATOM      9  C   UNL     1     -36.366 149.362   6.873  1.00  0.00    +0.042 A 
ATOM     10  C   UNL     1     -35.552 151.345   7.547  1.00  0.00    +0.122 A 
ATOM     11  C   UNL     1     -36.969 150.358   6.124  1.00  0.00    +0.108 A 
ATOM     12  N   UNL     1     -36.494 151.556   6.578  1.00  0.00    -0.235 N 
ATOM     13  C   UNL     1     -37.965 150.384   5.083  1.00  0.00    +0.156 C 
ATOM     14  N   UNL     1     -36.908 152.758   6.155  1.00  0.00    -0.156 NA
ATOM     15  N   UNL     1     -38.517 149.280   4.449  1.00  0.00    -0.351 N 
ATOM     16  N   UNL     1     -38.377 151.564   4.705  1.00  0.00    -0.215 NA
ATOM     17  C   UNL     1     -37.832 152.696   5.252  1.00  0.00    +0.247 C 
ATOM     18  C   UNL     1     -39.957 149.273   4.120  1.00  0.00    +0.139 C 
ATOM     19  C   UNL     1     -37.916 147.941   4.449  1.00  0.00    +0.139 C 
ATOM     20  C   UNL     1     -40.239 148.536   2.798  1.00  0.00    +0.141 C 
ATOM     21  C   UNL     1     -38.202 147.182   3.135  1.00  0.00    +0.141 C 
BRANCH   8  22
ATOM     22  C   UNL     1     -34.595 149.312   8.720  1.00  0.00    +0.021 A 
ATOM     23  N   UNL     1     -33.362 147.861   9.798  1.00  0.00    -0.275 N 
ATOM     24  C   UNL     1     -34.119 148.021   8.675  1.00  0.00    +0.117 A 
ATOM     25  N   UNL     1     -33.312 148.960  10.576  1.00  0.00    -0.181 NA
ATOM     26  C   UNL     1     -34.066 149.845   9.912  1.00  0.00    +0.143 A 
ATOM     27  C   UNL     1     -32.648 146.675  10.202  1.00  0.00    +0.173 C 
ENDBRANCH   8  22
ENDBRANCH   1   7
BRANCH   4  28
ATOM     28  C   UNL     1     -40.944 144.124  -1.795  1.00  0.00    +0.067 C 
ATOM     29  C   UNL     1     -39.759 143.255  -2.291  1.00  0.00    +0.038 C 
BRANCH  28  30
ATOM     30  N   UNL     1     -41.988 143.154  -1.427  1.00  0.00    -0.318 NA
ATOM     31  H   UNL     1     -41.672 142.208  -1.629  1.00  0.00    +0.120 HD
ATOM     32  H   UNL     1     -42.830 143.322  -1.973  1.00  0.00    +0.120 HD
ENDBRANCH  28  30
BRANCH  28  33
ATOM     33  C   UNL     1     -41.358 145.034  -2.980  1.00  0.00    -0.024 A 
ATOM     34  C   UNL     1     -40.701 146.272  -3.166  1.00  0.00    +0.009 A 
ATOM     35  C   UNL     1     -42.374 144.691  -3.894  1.00  0.00    +0.009 A 
ATOM     36  C   UNL     1     -41.044 147.125  -4.217  1.00  0.00    +0.039 A 
ATOM     37  C   UNL     1     -42.715 145.546  -4.947  1.00  0.00    +0.039 A 
ATOM     38  C   UNL     1     -42.048 146.753  -5.099  1.00  0.00    +0.123 A 
ATOM     39  F   UNL     1     -42.378 147.569  -6.108  1.00  0.00    -0.207 F 
ENDBRANCH  28  33
ENDBRANCH   4  28
TORSDOF 5
ENDMDL
MODEL 7
REMARK VINA RESULT:    -8.423      4.467     12.527
REMARK INTER + INTRA:         -11.006
REMARK INTER:                 -10.159
REMARK INTRA:                  -0.847
REMARK UNBOUND:                -0.367
REMARK SMILES Cn1cc(-c2cc3c(N4CCN(c5ncc([C@@](C)(N)c6ccc(F)cc6)cn5)CC4)ncnn3c2)cn1
REMARK SMILES IDX 13 1 14 2 15 3 16 4 27 5 28 6 12 7 5 8 6 9 35 10 7 11 34 12
REMARK SMILES IDX 8 13 33 14 9 15 31 16 32 17 10 18 30 19 11 20 29 21 4 22
REMARK SMILES IDX 2 23 3 24 37 25 36 26 1 27 17 28 18 29 19 30 20 33 21 34
REMARK SMILES IDX 26 35 22 36 25 37 23 38 24 39
REMARK H PARENT 19 31 19 32
ROOT
ATOM      1  C   UNL     1     -37.347 149.666   6.248  1.00  0.00    +0.225 A 
ATOM      2  N   UNL     1     -38.651 149.362   6.316  1.00  0.00    -0.221 NA
ATOM      3  C   UNL     1     -38.993 148.155   6.817  1.00  0.00    +0.122 A 
ATOM      4  C   UNL     1     -38.097 147.201   7.257  1.00  0.00    +0.013 A 
ATOM      5  C   UNL     1     -36.787 147.622   7.168  1.00  0.00    +0.122 A 
ATOM      6  N   UNL     1     -36.398 148.816   6.668  1.00  0.00    -0.221 NA
ENDROOT
BRANCH   1   7
ATOM      7  N   UNL     1     -36.966 150.919   5.758  1.00  0.00    -0.337 N 
ATOM      8  C   UNL     1     -37.866 157.548   3.509  1.00  0.00    +0.005 A 
ATOM      9  C   UNL     1     -37.633 156.186   3.830  1.00  0.00    +0.042 A 
ATOM     10  C   UNL     1     -37.155 158.302   4.414  1.00  0.00    +0.122 A 
ATOM     11  C   UNL     1     -36.809 156.155   4.942  1.00  0.00    +0.108 A 
ATOM     12  N   UNL     1     -36.496 157.447   5.254  1.00  0.00    -0.235 N 
ATOM     13  C   UNL     1     -36.215 155.111   5.738  1.00  0.00    +0.156 C 
ATOM     14  N   UNL     1     -35.649 157.822   6.222  1.00  0.00    -0.156 NA
ATOM     15  N   UNL     1     -36.461 153.750   5.620  1.00  0.00    -0.351 N 
ATOM     16  N   UNL     1     -35.370 155.493   6.657  1.00  0.00    -0.215 NA
ATOM     17  C   UNL     1     -35.126 156.826   6.862  1.00  0.00    +0.247 C 
ATOM     18  C   UNL     1     -35.344 152.794   5.764  1.00  0.00    +0.139 C 
ATOM     19  C   UNL     1     -37.633 153.177   4.947  1.00  0.00    +0.139 C 
ATOM     20  C   UNL     1     -35.794 151.487   6.444  1.00  0.00    +0.141 C 
ATOM     21  C   UNL     1     -38.087 151.858   5.609  1.00  0.00    +0.141 C 
BRANCH   8  22
ATOM     22  C   UNL     1     -38.693 158.037   2.416  1.00  0.00    +0.021 A 
ATOM     23  N   UNL     1     -39.447 158.743   0.488  1.00  0.00    -0.275 N 
ATOM     24  C   UNL     1     -38.319 158.314   1.121  1.00  0.00    +0.117 A 
ATOM     25  N   UNL     1     -40.535 158.767   1.282  1.00  0.00    -0.181 NA
ATOM     26  C   UNL     1     -40.070 158.333   2.459  1.00  0.00    +0.143 A 
ATOM     27  C   UNL     1     -39.567 159.152  -0.891  1.00  0.00    +0.173 C 
ENDBRANCH   8  22
ENDBRANCH   1   7
BRANCH   4  28
ATOM     28  C   UNL     1     -38.540 145.858   7.819  1.00  0.00    +0.067 C 
ATOM     29  C   UNL     1     -39.403 145.034   6.828  1.00  0.00    +0.038 C 
BRANCH  28  30
ATOM     30  N   UNL     1     -37.330 145.045   8.025  1.00  0.00    -0.318 NA
ATOM     31  H   UNL     1     -36.499 145.618   7.896  1.00  0.00    +0.120 HD
ATOM     32  H   UNL     1     -37.295 144.290   7.343  1.00  0.00    +0.120 HD
ENDBRANCH  28  30
BRANCH  28  33
ATOM     33  C   UNL     1     -39.380 146.025   9.111  1.00  0.00    -0.024 A 
ATOM     34  C   UNL     1     -38.860 146.786  10.183  1.00  0.00    +0.009 A 
ATOM     35  C   UNL     1     -40.655 145.446   9.280  1.00  0.00    +0.009 A 
ATOM     36  C   UNL     1     -39.582 146.960  11.366  1.00  0.00    +0.039 A 
ATOM     37  C   UNL     1     -41.375 145.622  10.466  1.00  0.00    +0.039 A 
ATOM     38  C   UNL     1     -40.833 146.377  11.497  1.00  0.00    +0.123 A 
ATOM     39  F   UNL     1     -41.526 146.542  12.630  1.00  0.00    -0.207 F 
ENDBRANCH  28  33
ENDBRANCH   4  28
TORSDOF 5
ENDMDL
MODEL 8
REMARK VINA RESULT:    -8.332      7.789     16.645
REMARK INTER + INTRA:         -10.892
REMARK INTER:                 -10.620
REMARK INTRA:                  -0.272
REMARK UNBOUND:                -0.367
REMARK SMILES Cn1cc(-c2cc3c(N4CCN(c5ncc([C@@](C)(N)c6ccc(F)cc6)cn5)CC4)ncnn3c2)cn1
REMARK SMILES IDX 13 1 14 2 15 3 16 4 27 5 28 6 12 7 5 8 6 9 35 10 7 11 34 12
REMARK SMILES IDX 8 13 33 14 9 15 31 16 32 17 10 18 30 19 11 20 29 21 4 22
REMARK SMILES IDX 2 23 3 24 37 25 36 26 1 27 17 28 18 29 19 30 20 33 21 34
REMARK SMILES IDX 26 35 22 36 25 37 23 38 24 39
REMARK H PARENT 19 31 19 32
ROOT
ATOM      1  C   UNL     1     -38.557 161.886  -4.654  1.00  0.00    +0.225 A 
ATOM      2  N   UNL     1     -38.202 160.604  -4.483  1.00  0.00    -0.221 NA
ATOM      3  C   UNL     1     -38.247 160.098  -3.231  1.00  0.00    +0.122 A 
ATOM      4  C   UNL     1     -38.622 160.808  -2.107  1.00  0.00    +0.013 A 
ATOM      5  C   UNL     1     -38.990 162.104  -2.395  1.00  0.00    +0.122 A 
ATOM      6  N   UNL     1     -38.955 162.654  -3.630  1.00  0.00    -0.221 NA
ENDROOT
BRANCH   1   7
ATOM      7  N   UNL     1     -38.544 162.427  -5.943  1.00  0.00    -0.337 N 
ATOM      8  C   UNL     1     -37.279 167.250 -10.938  1.00  0.00    +0.005 A 
ATOM      9  C   UNL     1     -37.673 166.295  -9.966  1.00  0.00    +0.042 A 
ATOM     10  C   UNL     1     -36.405 166.618 -11.793  1.00  0.00    +0.122 A 
ATOM     11  C   UNL     1     -37.001 165.117 -10.243  1.00  0.00    +0.108 A 
ATOM     12  N   UNL     1     -36.271 165.321 -11.380  1.00  0.00    -0.235 N 
ATOM     13  C   UNL     1     -36.966 163.803  -9.653  1.00  0.00    +0.156 C 
ATOM     14  N   UNL     1     -35.551 164.384 -12.011  1.00  0.00    -0.156 NA
ATOM     15  N   UNL     1     -37.583 163.421  -8.470  1.00  0.00    -0.351 N 
ATOM     16  N   UNL     1     -36.285 162.896 -10.298  1.00  0.00    -0.215 NA
ATOM     17  C   UNL     1     -35.607 163.223 -11.443  1.00  0.00    +0.247 C 
ATOM     18  C   UNL     1     -38.223 162.092  -8.379  1.00  0.00    +0.139 C 
ATOM     19  C   UNL     1     -38.039 164.356  -7.435  1.00  0.00    +0.139 C 
ATOM     20  C   UNL     1     -38.079 161.482  -6.973  1.00  0.00    +0.141 C 
ATOM     21  C   UNL     1     -37.914 163.753  -6.019  1.00  0.00    +0.141 C 
BRANCH   8  22
ATOM     22  C   UNL     1     -37.734 168.631 -11.010  1.00  0.00    +0.021 A 
ATOM     23  N   UNL     1     -38.759 170.495 -11.519  1.00  0.00    -0.275 N 
ATOM     24  C   UNL     1     -38.702 169.168 -11.828  1.00  0.00    +0.117 A 
ATOM     25  N   UNL     1     -37.893 170.862 -10.555  1.00  0.00    -0.181 NA
ATOM     26  C   UNL     1     -37.270 169.720 -10.246  1.00  0.00    +0.143 A 
ATOM     27  C   UNL     1     -39.626 171.487 -12.108  1.00  0.00    +0.173 C 
ENDBRANCH   8  22
ENDBRANCH   1   7
BRANCH   4  28
ATOM     28  C   UNL     1     -38.660 160.184  -0.719  1.00  0.00    +0.067 C 
ATOM     29  C   UNL     1     -38.209 158.700  -0.702  1.00  0.00    +0.038 C 
BRANCH  28  30
ATOM     30  N   UNL     1     -37.664 160.885   0.107  1.00  0.00    -0.318 NA
ATOM     31  H   UNL     1     -37.813 161.890   0.054  1.00  0.00    +0.120 HD
ATOM     32  H   UNL     1     -36.726 160.693  -0.236  1.00  0.00    +0.120 HD
ENDBRANCH  28  30
BRANCH  28  33
ATOM     33  C   UNL     1     -40.085 160.226  -0.110  1.00  0.00    -0.024 A 
ATOM     34  C   UNL     1     -40.361 159.482   1.060  1.00  0.00    +0.009 A 
ATOM     35  C   UNL     1     -41.140 160.974  -0.672  1.00  0.00    +0.009 A 
ATOM     36  C   UNL     1     -41.631 159.488   1.641  1.00  0.00    +0.039 A 
ATOM     37  C   UNL     1     -42.410 160.979  -0.087  1.00  0.00    +0.039 A 
ATOM     38  C   UNL     1     -42.644 160.237   1.062  1.00  0.00    +0.123 A 
ATOM     39  F   UNL     1     -43.863 160.244   1.617  1.00  0.00    -0.207 F 
ENDBRANCH  28  33
ENDBRANCH   4  28
TORSDOF 5
ENDMDL
MODEL 9
REMARK VINA RESULT:    -8.239      4.906      9.832
REMARK INTER + INTRA:         -10.774
REMARK INTER:                 -10.221
REMARK INTRA:                  -0.553
REMARK UNBOUND:                -0.367
REMARK SMILES Cn1cc(-c2cc3c(N4CCN(c5ncc([C@@](C)(N)c6ccc(F)cc6)cn5)CC4)ncnn3c2)cn1
REMARK SMILES IDX 13 1 14 2 15 3 16 4 27 5 28 6 12 7 5 8 6 9 35 10 7 11 34 12
REMARK SMILES IDX 8 13 33 14 9 15 31 16 32 17 10 18 30 19 11 20 29 21 4 22
REMARK SMILES IDX 2 23 3 24 37 25 36 26 1 27 17 28 18 29 19 30 20 33 21 34
REMARK SMILES IDX 26 35 22 36 25 37 23 38 24 39
REMARK H PARENT 19 31 19 32
ROOT
ATOM      1  C   UNL     1     -37.355 150.737   6.155  1.00  0.00    +0.225 A 
ATOM      2  N   UNL     1     -36.066 150.816   5.796  1.00  0.00    -0.221 NA
ATOM      3  C   UNL     1     -35.483 152.035   5.797  1.00  0.00    +0.122 A 
ATOM      4  C   UNL     1     -36.122 153.213   6.129  1.00  0.00    +0.013 A 
ATOM      5  C   UNL     1     -37.433 153.019   6.507  1.00  0.00    +0.122 A 
ATOM      6  N   UNL     1     -38.059 151.821   6.515  1.00  0.00    -0.221 NA
ENDROOT
BRANCH   1   7
ATOM      7  N   UNL     1     -37.976 149.484   6.187  1.00  0.00    -0.337 N 
ATOM      8  C   UNL     1     -43.297 144.899   6.877  1.00  0.00    +0.005 A 
ATOM      9  C   UNL     1     -42.167 145.756   6.852  1.00  0.00    +0.042 A 
ATOM     10  C   UNL     1     -43.364 144.285   5.648  1.00  0.00    +0.122 A 
ATOM     11  C   UNL     1     -41.597 145.658   5.593  1.00  0.00    +0.108 A 
ATOM     12  N   UNL     1     -42.313 144.729   4.893  1.00  0.00    -0.235 N 
ATOM     13  C   UNL     1     -40.455 146.251   4.946  1.00  0.00    +0.156 C 
ATOM     14  N   UNL     1     -42.014 144.297   3.661  1.00  0.00    -0.156 NA
ATOM     15  N   UNL     1     -39.649 147.254   5.465  1.00  0.00    -0.351 N 
ATOM     16  N   UNL     1     -40.162 145.796   3.758  1.00  0.00    -0.215 NA
ATOM     17  C   UNL     1     -40.952 144.845   3.167  1.00  0.00    +0.247 C 
ATOM     18  C   UNL     1     -38.188 147.200   5.247  1.00  0.00    +0.139 C 
ATOM     19  C   UNL     1     -40.038 148.141   6.567  1.00  0.00    +0.139 C 
ATOM     20  C   UNL     1     -37.582 148.604   5.074  1.00  0.00    +0.141 C 
ATOM     21  C   UNL     1     -39.426 149.551   6.414  1.00  0.00    +0.141 C 
BRANCH   8  22
ATOM     22  C   UNL     1     -44.197 144.708   8.005  1.00  0.00    +0.021 A 
ATOM     23  N   UNL     1     -45.347 144.928   9.852  1.00  0.00    -0.275 N 
ATOM     24  C   UNL     1     -44.424 145.553   9.067  1.00  0.00    +0.117 A 
ATOM     25  N   UNL     1     -45.738 143.730   9.376  1.00  0.00    -0.181 NA
ATOM     26  C   UNL     1     -45.034 143.600   8.246  1.00  0.00    +0.143 A 
ATOM     27  C   UNL     1     -45.911 145.417  11.087  1.00  0.00    +0.173 C 
ENDBRANCH   8  22
ENDBRANCH   1   7
BRANCH   4  28
ATOM     28  C   UNL     1     -35.413 154.560   6.118  1.00  0.00    +0.067 C 
ATOM     29  C   UNL     1     -35.160 155.131   7.538  1.00  0.00    +0.038 C 
BRANCH  28  30
ATOM     30  N   UNL     1     -34.069 154.347   5.558  1.00  0.00    -0.318 NA
ATOM     31  H   UNL     1     -34.122 153.728   4.752  1.00  0.00    +0.120 HD
ATOM     32  H   UNL     1     -33.467 153.904   6.249  1.00  0.00    +0.120 HD
ENDBRANCH  28  30
BRANCH  28  33
ATOM     33  C   UNL     1     -36.225 155.630   5.344  1.00  0.00    -0.024 A 
ATOM     34  C   UNL     1     -36.107 156.991   5.711  1.00  0.00    +0.009 A 
ATOM     35  C   UNL     1     -37.094 155.314   4.280  1.00  0.00    +0.009 A 
ATOM     36  C   UNL     1     -36.823 157.987   5.043  1.00  0.00    +0.039 A 
ATOM     37  C   UNL     1     -37.809 156.315   3.612  1.00  0.00    +0.039 A 
ATOM     38  C   UNL     1     -37.666 157.640   3.999  1.00  0.00    +0.123 A 
ATOM     39  F   UNL     1     -38.353 158.593   3.358  1.00  0.00    -0.207 F 
ENDBRANCH  28  33
ENDBRANCH   4  28
TORSDOF 5
ENDMDL
MODEL 10
REMARK VINA RESULT:    -8.171      4.592     12.643
REMARK INTER + INTRA:         -10.688
REMARK INTER:                  -9.873
REMARK INTRA:                  -0.815
REMARK UNBOUND:                -0.367
REMARK SMILES Cn1cc(-c2cc3c(N4CCN(c5ncc([C@@](C)(N)c6ccc(F)cc6)cn5)CC4)ncnn3c2)cn1
REMARK SMILES IDX 13 1 14 2 15 3 16 4 27 5 28 6 12 7 5 8 6 9 35 10 7 11 34 12
REMARK SMILES IDX 8 13 33 14 9 15 31 16 32 17 10 18 30 19 11 20 29 21 4 22
REMARK SMILES IDX 2 23 3 24 37 25 36 26 1 27 17 28 18 29 19 30 20 33 21 34
REMARK SMILES IDX 26 35 22 36 25 37 23 38 24 39
REMARK H PARENT 19 31 19 32
ROOT
ATOM      1  C   UNL     1     -37.257 149.727   5.910  1.00  0.00    +0.225 A 
ATOM      2  N   UNL     1     -38.524 149.517   6.295  1.00  0.00    -0.221 NA
ATOM      3  C   UNL     1     -38.853 148.284   6.739  1.00  0.00    +0.122 A 
ATOM      4  C   UNL     1     -37.981 147.215   6.815  1.00  0.00    +0.013 A 
ATOM      5  C   UNL     1     -36.702 147.543   6.421  1.00  0.00    +0.122 A 
ATOM      6  N   UNL     1     -36.329 148.760   5.964  1.00  0.00    -0.221 NA
ENDROOT
BRANCH   1   7
ATOM      7  N   UNL     1     -36.884 151.001   5.470  1.00  0.00    -0.337 N 
ATOM      8  C   UNL     1     -37.825 157.703   3.468  1.00  0.00    +0.005 A 
ATOM      9  C   UNL     1     -37.582 156.332   3.739  1.00  0.00    +0.042 A 
ATOM     10  C   UNL     1     -37.128 158.428   4.407  1.00  0.00    +0.122 A 
ATOM     11  C   UNL     1     -36.767 156.265   4.857  1.00  0.00    +0.108 A 
ATOM     12  N   UNL     1     -36.468 157.548   5.220  1.00  0.00    -0.235 N 
ATOM     13  C   UNL     1     -36.170 155.197   5.617  1.00  0.00    +0.156 C 
ATOM     14  N   UNL     1     -35.632 157.892   6.209  1.00  0.00    -0.156 NA
ATOM     15  N   UNL     1     -36.403 153.840   5.445  1.00  0.00    -0.351 N 
ATOM     16  N   UNL     1     -35.335 155.551   6.556  1.00  0.00    -0.215 NA
ATOM     17  C   UNL     1     -35.105 156.877   6.814  1.00  0.00    +0.247 C 
ATOM     18  C   UNL     1     -35.279 152.888   5.561  1.00  0.00    +0.139 C 
ATOM     19  C   UNL     1     -37.564 153.283   4.741  1.00  0.00    +0.139 C 
ATOM     20  C   UNL     1     -35.722 151.553   6.187  1.00  0.00    +0.141 C 
ATOM     21  C   UNL     1     -38.012 151.935   5.348  1.00  0.00    +0.141 C 
BRANCH   8  22
ATOM     22  C   UNL     1     -38.648 158.226   2.388  1.00  0.00    +0.021 A 
ATOM     23  N   UNL     1     -40.258 159.085   1.183  1.00  0.00    -0.275 N 
ATOM     24  C   UNL     1     -39.928 158.726   2.456  1.00  0.00    +0.117 A 
ATOM     25  N   UNL     1     -39.281 158.852   0.286  1.00  0.00    -0.181 NA
ATOM     26  C   UNL     1     -38.298 158.329   1.027  1.00  0.00    +0.143 A 
ATOM     27  C   UNL     1     -41.504 159.664   0.740  1.00  0.00    +0.173 C 
ENDBRANCH   8  22
ENDBRANCH   1   7
BRANCH   4  28
ATOM     28  C   UNL     1     -38.406 145.847   7.331  1.00  0.00    +0.067 C 
ATOM     29  C   UNL     1     -39.724 145.882   8.147  1.00  0.00    +0.038 C 
BRANCH  28  30
ATOM     30  N   UNL     1     -38.715 145.011   6.160  1.00  0.00    -0.318 NA
ATOM     31  H   UNL     1     -39.415 145.469   5.580  1.00  0.00    +0.120 HD
ATOM     32  H   UNL     1     -39.098 144.117   6.459  1.00  0.00    +0.120 HD
ENDBRANCH  28  30
BRANCH  28  33
ATOM     33  C   UNL     1     -37.327 145.220   8.250  1.00  0.00    -0.024 A 
ATOM     34  C   UNL     1     -37.103 145.769   9.534  1.00  0.00    +0.009 A 
ATOM     35  C   UNL     1     -36.539 144.115   7.868  1.00  0.00    +0.009 A 
ATOM     36  C   UNL     1     -36.139 145.238  10.393  1.00  0.00    +0.039 A 
ATOM     37  C   UNL     1     -35.575 143.584   8.731  1.00  0.00    +0.039 A 
ATOM     38  C   UNL     1     -35.384 144.149   9.984  1.00  0.00    +0.123 A 
ATOM     39  F   UNL     1     -34.460 143.638  10.807  1.00  0.00    -0.207 F 
ENDBRANCH  28  33
ENDBRANCH   4  28
TORSDOF 5
ENDMDL
