REMARK SMILES CCn1c(=O)c(-c2cc(NC(=O)Nc3ccccc3)c(F)cc2Br)cc2cnc(NC)cc21
REMARK SMILES IDX 3 1 4 2 5 3 6 4 25 5 26 6 27 7 28 8 29 9 32 10 33 11 2 12
REMARK SMILES IDX 1 13 7 14 8 15 23 16 9 17 22 18 20 19 24 20 21 21 10 22
REMARK SMILES IDX 11 23 12 24 13 25 14 28 15 29 19 30 16 31 18 32 17 33 30 34
REMARK SMILES IDX 31 35
REMARK H PARENT 10 26 13 27 30 36
ROOT
ATOM      1  N   UNL     1      -3.408  -1.124   0.609  1.00  0.00    -0.308 N 
ATOM      2  C   UNL     1      -2.177  -1.767   0.765  1.00  0.00    +0.258 C 
ATOM      3  O   UNL     1      -1.874  -2.411   1.770  1.00  0.00    -0.269 OA
ATOM      4  C   UNL     1      -1.190  -1.652  -0.360  1.00  0.00    +0.049 C 
ATOM      5  C   UNL     1      -1.468  -0.909  -1.442  1.00  0.00    +0.026 C 
ATOM      6  C   UNL     1      -2.737  -0.203  -1.542  1.00  0.00    +0.018 A 
ATOM      7  C   UNL     1      -3.036   0.586  -2.643  1.00  0.00    +0.123 A 
ATOM      8  N   UNL     1      -4.192   1.269  -2.799  1.00  0.00    -0.239 NA
ATOM      9  C   UNL     1      -5.107   1.185  -1.817  1.00  0.00    +0.127 A 
ATOM     10  C   UNL     1      -4.891   0.401  -0.682  1.00  0.00    +0.073 A 
ATOM     11  C   UNL     1      -3.693  -0.307  -0.532  1.00  0.00    +0.056 A 
ENDROOT
BRANCH   1  12
ATOM     12  C   UNL     1      -4.372  -1.259   1.700  1.00  0.00    +0.122 C 
ATOM     13  C   UNL     1      -4.243  -0.141   2.724  1.00  0.00    +0.028 C 
ENDBRANCH   1  12
BRANCH   4  14
ATOM     14  C   UNL     1       0.102  -2.360  -0.286  1.00  0.00    +0.004 A 
ATOM     15  C   UNL     1       1.252  -1.614   0.042  1.00  0.00    +0.039 A 
ATOM     16  C   UNL     1       0.223  -3.741  -0.521  1.00  0.00    +0.029 A 
ATOM     17  C   UNL     1       2.500  -2.232   0.137  1.00  0.00    +0.079 A 
ATOM     18  C   UNL     1       1.464  -4.368  -0.413  1.00  0.00    +0.057 A 
ATOM     19  C   UNL     1       2.582  -3.612  -0.081  1.00  0.00    +0.147 A 
ATOM     20 Br   UNL     1      -1.261  -4.821  -1.018  1.00  0.00    -0.050 Br
ATOM     21  F   UNL     1       3.773  -4.224   0.019  1.00  0.00    -0.205 F 
BRANCH  17  22
ATOM     22  N   UNL     1       3.697  -1.559   0.465  1.00  0.00    -0.305 N 
ATOM     23  C   UNL     1       3.909  -0.189   0.494  1.00  0.00    +0.323 C 
ATOM     24  O   UNL     1       3.090   0.644   0.131  1.00  0.00    -0.248 OA
ATOM     25  N   UNL     1       5.175   0.087   0.987  1.00  0.00    -0.308 N 
ATOM     26  H   UNL     1       4.521  -2.145   0.496  1.00  0.00    +0.171 HD
ATOM     27  H   UNL     1       5.641  -0.676   1.452  1.00  0.00    +0.171 HD
BRANCH  25  28
ATOM     28  C   UNL     1       5.806   1.344   1.083  1.00  0.00    +0.042 A 
ATOM     29  C   UNL     1       7.032   1.395   1.761  1.00  0.00    +0.026 A 
ATOM     30  C   UNL     1       5.295   2.519   0.529  1.00  0.00    +0.026 A 
ATOM     31  C   UNL     1       7.726   2.600   1.892  1.00  0.00    +0.002 A 
ATOM     32  C   UNL     1       5.990   3.726   0.661  1.00  0.00    +0.002 A 
ATOM     33  C   UNL     1       7.204   3.767   1.342  1.00  0.00    +0.000 A 
ENDBRANCH  25  28
ENDBRANCH  17  22
ENDBRANCH   4  14
BRANCH   9  34
ATOM     34  N   UNL     1      -6.338   1.855  -1.929  1.00  0.00    -0.373 N 
ATOM     35  C   UNL     1      -6.465   2.677  -3.122  1.00  0.00    +0.141 C 
ATOM     36  H   UNL     1      -6.501   2.394  -1.084  1.00  0.00    +0.161 HD
ENDBRANCH   9  34
TORSDOF 5
