MODEL 1
REMARK VINA RESULT:    -9.459      0.000      0.000
REMARK INTER + INTRA:         -12.332
REMARK INTER:                 -12.223
REMARK INTRA:                  -0.108
REMARK UNBOUND:                -0.108
REMARK SMILES CCn1c(=O)c(-c2cc(NC(=O)Nc3ccccc3)c(F)cc2Br)cc2cnc(NC)cc21
REMARK SMILES IDX 3 1 4 2 5 3 6 4 25 5 26 6 27 7 28 8 29 9 32 10 33 11 2 12
REMARK SMILES IDX 1 13 7 14 8 15 23 16 9 17 22 18 20 19 24 20 21 21 10 22
REMARK SMILES IDX 11 23 12 24 13 25 14 28 15 29 19 30 16 31 18 32 17 33 30 34
REMARK SMILES IDX 31 35
REMARK H PARENT 10 26 13 27 30 36
ROOT
ATOM      1  N   UNL     1      -7.031   1.709 -14.669  1.00  0.00    -0.308 N 
ATOM      2  C   UNL     1      -8.265   2.219 -14.256  1.00  0.00    +0.258 C 
ATOM      3  O   UNL     1      -8.581   2.344 -13.072  1.00  0.00    -0.269 OA
ATOM      4  C   UNL     1      -9.237   2.626 -15.324  1.00  0.00    +0.049 C 
ATOM      5  C   UNL     1      -8.945   2.447 -16.621  1.00  0.00    +0.026 C 
ATOM      6  C   UNL     1      -7.674   1.855 -17.012  1.00  0.00    +0.018 A 
ATOM      7  C   UNL     1      -7.360   1.644 -18.347  1.00  0.00    +0.123 A 
ATOM      8  N   UNL     1      -6.201   1.098 -18.779  1.00  0.00    -0.239 NA
ATOM      9  C   UNL     1      -5.299   0.728 -17.853  1.00  0.00    +0.127 A 
ATOM     10  C   UNL     1      -5.530   0.920 -16.490  1.00  0.00    +0.073 A 
ATOM     11  C   UNL     1      -6.731   1.490 -16.052  1.00  0.00    +0.056 A 
ENDROOT
BRANCH   1  12
ATOM     12  C   UNL     1      -6.081   1.335 -13.622  1.00  0.00    +0.122 C 
ATOM     13  C   UNL     1      -6.265  -0.105 -13.166  1.00  0.00    +0.028 C 
ENDBRANCH   1  12
BRANCH   4  14
ATOM     14  C   UNL     1     -10.531   3.231 -14.955  1.00  0.00    +0.004 A 
ATOM     15  C   UNL     1     -11.384   2.507 -14.098  1.00  0.00    +0.039 A 
ATOM     16  C   UNL     1     -10.934   4.496 -15.418  1.00  0.00    +0.029 A 
ATOM     17  C   UNL     1     -12.616   3.034 -13.706  1.00  0.00    +0.079 A 
ATOM     18  C   UNL     1     -12.157   5.036 -15.019  1.00  0.00    +0.057 A 
ATOM     19  C   UNL     1     -12.978   4.306 -14.167  1.00  0.00    +0.147 A 
ATOM     20 Br   UNL     1      -9.875   5.525 -16.616  1.00  0.00    -0.050 Br
ATOM     21  F   UNL     1     -14.154   4.832 -13.790  1.00  0.00    -0.205 F 
BRANCH  17  22
ATOM     22  N   UNL     1     -13.525   2.377 -12.848  1.00  0.00    -0.305 N 
ATOM     23  C   UNL     1     -13.232   1.707 -11.671  1.00  0.00    +0.323 C 
ATOM     24  O   UNL     1     -12.099   1.502 -11.256  1.00  0.00    -0.248 OA
ATOM     25  N   UNL     1     -14.403   1.306 -11.046  1.00  0.00    -0.308 N 
ATOM     26  H   UNL     1     -14.446   2.227 -13.237  1.00  0.00    +0.171 HD
ATOM     27  H   UNL     1     -15.249   1.739 -11.382  1.00  0.00    +0.171 HD
BRANCH  25  28
ATOM     28  C   UNL     1     -14.533   0.518  -9.884  1.00  0.00    +0.042 A 
ATOM     29  C   UNL     1     -15.108   1.126  -8.759  1.00  0.00    +0.026 A 
ATOM     30  C   UNL     1     -14.147  -0.820  -9.801  1.00  0.00    +0.026 A 
ATOM     31  C   UNL     1     -15.281   0.412  -7.572  1.00  0.00    +0.002 A 
ATOM     32  C   UNL     1     -14.320  -1.536  -8.611  1.00  0.00    +0.002 A 
ATOM     33  C   UNL     1     -14.886  -0.921  -7.498  1.00  0.00    +0.000 A 
ENDBRANCH  25  28
ENDBRANCH  17  22
ENDBRANCH   4  14
BRANCH   9  34
ATOM     34  N   UNL     1      -4.066   0.174 -18.240  1.00  0.00    -0.373 N 
ATOM     35  C   UNL     1      -3.543  -0.823 -17.319  1.00  0.00    +0.141 C 
ATOM     36  H   UNL     1      -3.399   0.924 -18.397  1.00  0.00    +0.161 HD
ENDBRANCH   9  34
TORSDOF 5
ENDMDL
MODEL 2
REMARK VINA RESULT:    -9.294      3.800      9.917
REMARK INTER + INTRA:         -12.119
REMARK INTER:                 -11.166
REMARK INTRA:                  -0.953
REMARK UNBOUND:                -0.108
REMARK SMILES CCn1c(=O)c(-c2cc(NC(=O)Nc3ccccc3)c(F)cc2Br)cc2cnc(NC)cc21
REMARK SMILES IDX 3 1 4 2 5 3 6 4 25 5 26 6 27 7 28 8 29 9 32 10 33 11 2 12
REMARK SMILES IDX 1 13 7 14 8 15 23 16 9 17 22 18 20 19 24 20 21 21 10 22
REMARK SMILES IDX 11 23 12 24 13 25 14 28 15 29 19 30 16 31 18 32 17 33 30 34
REMARK SMILES IDX 31 35
REMARK H PARENT 10 26 13 27 30 36
ROOT
ATOM      1  N   UNL     1     -12.803  -2.916 -10.576  1.00  0.00    -0.308 N 
ATOM      2  C   UNL     1     -11.670  -2.612 -11.334  1.00  0.00    +0.258 C 
ATOM      3  O   UNL     1     -11.133  -3.415 -12.098  1.00  0.00    -0.269 OA
ATOM      4  C   UNL     1     -11.094  -1.233 -11.194  1.00  0.00    +0.049 C 
ATOM      5  C   UNL     1     -11.621  -0.355 -10.327  1.00  0.00    +0.026 C 
ATOM      6  C   UNL     1     -12.764  -0.729  -9.507  1.00  0.00    +0.018 A 
ATOM      7  C   UNL     1     -13.312   0.157  -8.591  1.00  0.00    +0.123 A 
ATOM      8  N   UNL     1     -14.370  -0.125  -7.799  1.00  0.00    -0.239 NA
ATOM      9  C   UNL     1     -14.922  -1.347  -7.900  1.00  0.00    +0.127 A 
ATOM     10  C   UNL     1     -14.440  -2.293  -8.808  1.00  0.00    +0.073 A 
ATOM     11  C   UNL     1     -13.347  -1.990  -9.628  1.00  0.00    +0.056 A 
ENDROOT
BRANCH   1  12
ATOM     12  C   UNL     1     -13.371  -4.254 -10.734  1.00  0.00    +0.122 C 
ATOM     13  C   UNL     1     -12.731  -5.266  -9.796  1.00  0.00    +0.028 C 
ENDBRANCH   1  12
BRANCH   4  14
ATOM     14  C   UNL     1      -9.937  -0.827 -12.015  1.00  0.00    +0.004 A 
ATOM     15  C   UNL     1     -10.175  -0.031 -13.153  1.00  0.00    +0.039 A 
ATOM     16  C   UNL     1      -8.618  -1.197 -11.698  1.00  0.00    +0.029 A 
ATOM     17  C   UNL     1      -9.118   0.392 -13.961  1.00  0.00    +0.079 A 
ATOM     18  C   UNL     1      -7.555  -0.765 -12.492  1.00  0.00    +0.057 A 
ATOM     19  C   UNL     1      -7.815   0.025 -13.606  1.00  0.00    +0.147 A 
ATOM     20 Br   UNL     1      -8.203  -2.309 -10.213  1.00  0.00    -0.050 Br
ATOM     21  F   UNL     1      -6.786   0.434 -14.365  1.00  0.00    -0.205 F 
BRANCH  17  22
ATOM     22  N   UNL     1      -9.270   1.194 -15.113  1.00  0.00    -0.305 N 
ATOM     23  C   UNL     1      -9.199   2.577 -15.189  1.00  0.00    +0.323 C 
ATOM     24  O   UNL     1      -9.090   3.316 -14.221  1.00  0.00    -0.248 OA
ATOM     25  N   UNL     1      -9.272   2.986 -16.511  1.00  0.00    -0.308 N 
ATOM     26  H   UNL     1      -9.654   0.716 -15.918  1.00  0.00    +0.171 HD
ATOM     27  H   UNL     1      -9.130   2.266 -17.202  1.00  0.00    +0.171 HD
BRANCH  25  28
ATOM     28  C   UNL     1      -9.331   4.306 -17.002  1.00  0.00    +0.042 A 
ATOM     29  C   UNL     1      -8.397   4.668 -17.982  1.00  0.00    +0.026 A 
ATOM     30  C   UNL     1     -10.270   5.252 -16.586  1.00  0.00    +0.026 A 
ATOM     31  C   UNL     1      -8.394   5.954 -18.526  1.00  0.00    +0.002 A 
ATOM     32  C   UNL     1     -10.267   6.541 -17.131  1.00  0.00    +0.002 A 
ATOM     33  C   UNL     1      -9.330   6.892 -18.100  1.00  0.00    +0.000 A 
ENDBRANCH  25  28
ENDBRANCH  17  22
ENDBRANCH   4  14
BRANCH   9  34
ATOM     34  N   UNL     1     -16.038  -1.695  -7.119  1.00  0.00    -0.373 N 
ATOM     35  C   UNL     1     -16.827  -0.560  -6.667  1.00  0.00    +0.141 C 
ATOM     36  H   UNL     1     -15.732  -2.272  -6.341  1.00  0.00    +0.161 HD
ENDBRANCH   9  34
TORSDOF 5
ENDMDL
MODEL 3
REMARK VINA RESULT:    -9.152      4.061      7.686
REMARK INTER + INTRA:         -11.935
REMARK INTER:                 -11.818
REMARK INTRA:                  -0.118
REMARK UNBOUND:                -0.108
REMARK SMILES CCn1c(=O)c(-c2cc(NC(=O)Nc3ccccc3)c(F)cc2Br)cc2cnc(NC)cc21
REMARK SMILES IDX 3 1 4 2 5 3 6 4 25 5 26 6 27 7 28 8 29 9 32 10 33 11 2 12
REMARK SMILES IDX 1 13 7 14 8 15 23 16 9 17 22 18 20 19 24 20 21 21 10 22
REMARK SMILES IDX 11 23 12 24 13 25 14 28 15 29 19 30 16 31 18 32 17 33 30 34
REMARK SMILES IDX 31 35
REMARK H PARENT 10 26 13 27 30 36
ROOT
ATOM      1  N   UNL     1      -5.998  -0.328 -15.990  1.00  0.00    -0.308 N 
ATOM      2  C   UNL     1      -7.164   0.443 -15.981  1.00  0.00    +0.258 C 
ATOM      3  O   UNL     1      -7.782   0.745 -17.002  1.00  0.00    -0.269 OA
ATOM      4  C   UNL     1      -7.668   0.916 -14.649  1.00  0.00    +0.049 C 
ATOM      5  C   UNL     1      -6.985   0.653 -13.525  1.00  0.00    +0.026 C 
ATOM      6  C   UNL     1      -5.741  -0.101 -13.580  1.00  0.00    +0.018 A 
ATOM      7  C   UNL     1      -5.010  -0.367 -12.432  1.00  0.00    +0.123 A 
ATOM      8  N   UNL     1      -3.848  -1.059 -12.413  1.00  0.00    -0.239 NA
ATOM      9  C   UNL     1      -3.367  -1.509 -13.585  1.00  0.00    +0.127 A 
ATOM     10  C   UNL     1      -4.049  -1.297 -14.785  1.00  0.00    +0.073 A 
ATOM     11  C   UNL     1      -5.253  -0.584 -14.794  1.00  0.00    +0.056 A 
ENDROOT
BRANCH   1  12
ATOM     12  C   UNL     1      -5.526  -0.804 -17.290  1.00  0.00    +0.122 C 
ATOM     13  C   UNL     1      -4.571   0.179 -17.951  1.00  0.00    +0.028 C 
ENDBRANCH   1  12
BRANCH   4  14
ATOM     14  C   UNL     1      -8.928   1.680 -14.563  1.00  0.00    +0.004 A 
ATOM     15  C   UNL     1      -9.011   2.906 -15.254  1.00  0.00    +0.039 A 
ATOM     16  C   UNL     1     -10.039   1.227 -13.831  1.00  0.00    +0.029 A 
ATOM     17  C   UNL     1     -10.181   3.666 -15.218  1.00  0.00    +0.079 A 
ATOM     18  C   UNL     1     -11.216   1.974 -13.803  1.00  0.00    +0.057 A 
ATOM     19  C   UNL     1     -11.276   3.176 -14.498  1.00  0.00    +0.147 A 
ATOM     20 Br   UNL     1     -10.005  -0.388 -12.827  1.00  0.00    -0.050 Br
ATOM     21  F   UNL     1     -12.414   3.889 -14.464  1.00  0.00    -0.205 F 
BRANCH  17  22
ATOM     22  N   UNL     1     -10.348   4.899 -15.885  1.00  0.00    -0.305 N 
ATOM     23  C   UNL     1      -9.941   5.220 -17.171  1.00  0.00    +0.323 C 
ATOM     24  O   UNL     1      -9.272   4.487 -17.886  1.00  0.00    -0.248 OA
ATOM     25  N   UNL     1     -10.397   6.483 -17.514  1.00  0.00    -0.308 N 
ATOM     26  H   UNL     1     -10.622   5.671 -15.291  1.00  0.00    +0.171 HD
ATOM     27  H   UNL     1     -11.116   6.867 -16.920  1.00  0.00    +0.171 HD
BRANCH  25  28
ATOM     28  C   UNL     1     -10.117   7.210 -18.689  1.00  0.00    +0.042 A 
ATOM     29  C   UNL     1      -9.529   8.473 -18.537  1.00  0.00    +0.026 A 
ATOM     30  C   UNL     1     -10.370   6.737 -19.978  1.00  0.00    +0.026 A 
ATOM     31  C   UNL     1      -9.212   9.252 -19.651  1.00  0.00    +0.002 A 
ATOM     32  C   UNL     1     -10.052   7.518 -21.095  1.00  0.00    +0.002 A 
ATOM     33  C   UNL     1      -9.474   8.775 -20.932  1.00  0.00    +0.000 A 
ENDBRANCH  25  28
ENDBRANCH  17  22
ENDBRANCH   4  14
BRANCH   9  34
ATOM     34  N   UNL     1      -2.174  -2.252 -13.629  1.00  0.00    -0.373 N 
ATOM     35  C   UNL     1      -1.825  -2.745 -14.952  1.00  0.00    +0.141 C 
ATOM     36  H   UNL     1      -2.228  -3.007 -12.951  1.00  0.00    +0.161 HD
ENDBRANCH   9  34
TORSDOF 5
ENDMDL
MODEL 4
REMARK VINA RESULT:    -8.957      3.425      4.842
REMARK INTER + INTRA:         -11.683
REMARK INTER:                 -12.063
REMARK INTRA:                   0.380
REMARK UNBOUND:                -0.108
REMARK SMILES CCn1c(=O)c(-c2cc(NC(=O)Nc3ccccc3)c(F)cc2Br)cc2cnc(NC)cc21
REMARK SMILES IDX 3 1 4 2 5 3 6 4 25 5 26 6 27 7 28 8 29 9 32 10 33 11 2 12
REMARK SMILES IDX 1 13 7 14 8 15 23 16 9 17 22 18 20 19 24 20 21 21 10 22
REMARK SMILES IDX 11 23 12 24 13 25 14 28 15 29 19 30 16 31 18 32 17 33 30 34
REMARK SMILES IDX 31 35
REMARK H PARENT 10 26 13 27 30 36
ROOT
ATOM      1  N   UNL     1      -9.301   1.213 -15.351  1.00  0.00    -0.308 N 
ATOM      2  C   UNL     1     -10.160   0.806 -14.326  1.00  0.00    +0.258 C 
ATOM      3  O   UNL     1     -10.245  -0.360 -13.939  1.00  0.00    -0.269 OA
ATOM      4  C   UNL     1     -11.014   1.859 -13.681  1.00  0.00    +0.049 C 
ATOM      5  C   UNL     1     -10.987   3.126 -14.120  1.00  0.00    +0.026 C 
ATOM      6  C   UNL     1     -10.124   3.501 -15.231  1.00  0.00    +0.018 A 
ATOM      7  C   UNL     1     -10.096   4.801 -15.713  1.00  0.00    +0.123 A 
ATOM      8  N   UNL     1      -9.321   5.216 -16.740  1.00  0.00    -0.239 NA
ATOM      9  C   UNL     1      -8.534   4.305 -17.339  1.00  0.00    +0.127 A 
ATOM     10  C   UNL     1      -8.492   2.979 -16.907  1.00  0.00    +0.073 A 
ATOM     11  C   UNL     1      -9.294   2.560 -15.839  1.00  0.00    +0.056 A 
ENDROOT
BRANCH   1  12
ATOM     12  C   UNL     1      -8.457   0.186 -15.959  1.00  0.00    +0.122 C 
ATOM     13  C   UNL     1      -7.127   0.032 -15.236  1.00  0.00    +0.028 C 
ENDBRANCH   1  12
BRANCH   4  14
ATOM     14  C   UNL     1     -11.895   1.507 -12.552  1.00  0.00    +0.004 A 
ATOM     15  C   UNL     1     -11.496   0.460 -11.697  1.00  0.00    +0.039 A 
ATOM     16  C   UNL     1     -13.103   2.180 -12.296  1.00  0.00    +0.029 A 
ATOM     17  C   UNL     1     -12.283   0.090 -10.606  1.00  0.00    +0.079 A 
ATOM     18  C   UNL     1     -13.887   1.826 -11.199  1.00  0.00    +0.057 A 
ATOM     19  C   UNL     1     -13.469   0.794 -10.366  1.00  0.00    +0.147 A 
ATOM     20 Br   UNL     1     -13.749   3.571 -13.420  1.00  0.00    -0.050 Br
ATOM     21  F   UNL     1     -14.231   0.460  -9.314  1.00  0.00    -0.205 F 
BRANCH  17  22
ATOM     22  N   UNL     1     -11.953  -0.942  -9.701  1.00  0.00    -0.305 N 
ATOM     23  C   UNL     1     -12.341  -2.272  -9.766  1.00  0.00    +0.323 C 
ATOM     24  O   UNL     1     -13.128  -2.722 -10.588  1.00  0.00    -0.248 OA
ATOM     25  N   UNL     1     -11.712  -3.002  -8.770  1.00  0.00    -0.308 N 
ATOM     26  H   UNL     1     -11.552  -0.631  -8.826  1.00  0.00    +0.171 HD
ATOM     27  H   UNL     1     -10.929  -2.550  -8.323  1.00  0.00    +0.171 HD
BRANCH  25  28
ATOM     28  C   UNL     1     -11.911  -4.358  -8.439  1.00  0.00    +0.042 A 
ATOM     29  C   UNL     1     -13.016  -4.665  -7.634  1.00  0.00    +0.026 A 
ATOM     30  C   UNL     1     -11.092  -5.398  -8.882  1.00  0.00    +0.026 A 
ATOM     31  C   UNL     1     -13.289  -5.985  -7.269  1.00  0.00    +0.002 A 
ATOM     32  C   UNL     1     -11.366  -6.720  -8.516  1.00  0.00    +0.002 A 
ATOM     33  C   UNL     1     -12.463  -7.014  -7.710  1.00  0.00    +0.000 A 
ENDBRANCH  25  28
ENDBRANCH  17  22
ENDBRANCH   4  14
BRANCH   9  34
ATOM     34  N   UNL     1      -7.690   4.679 -18.400  1.00  0.00    -0.373 N 
ATOM     35  C   UNL     1      -8.147   5.839 -19.148  1.00  0.00    +0.141 C 
ATOM     36  H   UNL     1      -7.543   3.877 -19.005  1.00  0.00    +0.161 HD
ENDBRANCH   9  34
TORSDOF 5
ENDMDL
MODEL 5
REMARK VINA RESULT:    -8.675      4.555      7.835
REMARK INTER + INTRA:         -11.319
REMARK INTER:                 -11.083
REMARK INTRA:                  -0.236
REMARK UNBOUND:                -0.108
REMARK SMILES CCn1c(=O)c(-c2cc(NC(=O)Nc3ccccc3)c(F)cc2Br)cc2cnc(NC)cc21
REMARK SMILES IDX 3 1 4 2 5 3 6 4 25 5 26 6 27 7 28 8 29 9 32 10 33 11 2 12
REMARK SMILES IDX 1 13 7 14 8 15 23 16 9 17 22 18 20 19 24 20 21 21 10 22
REMARK SMILES IDX 11 23 12 24 13 25 14 28 15 29 19 30 16 31 18 32 17 33 30 34
REMARK SMILES IDX 31 35
REMARK H PARENT 10 26 13 27 30 36
ROOT
ATOM      1  N   UNL     1      -4.361   0.068 -16.231  1.00  0.00    -0.308 N 
ATOM      2  C   UNL     1      -5.417   0.922 -15.899  1.00  0.00    +0.258 C 
ATOM      3  O   UNL     1      -5.322   2.150 -15.908  1.00  0.00    -0.269 OA
ATOM      4  C   UNL     1      -6.722   0.288 -15.512  1.00  0.00    +0.049 C 
ATOM      5  C   UNL     1      -6.840  -1.046 -15.436  1.00  0.00    +0.026 C 
ATOM      6  C   UNL     1      -5.700  -1.902 -15.730  1.00  0.00    +0.018 A 
ATOM      7  C   UNL     1      -5.795  -3.283 -15.638  1.00  0.00    +0.123 A 
ATOM      8  N   UNL     1      -4.778  -4.135 -15.895  1.00  0.00    -0.239 NA
ATOM      9  C   UNL     1      -3.594  -3.608 -16.254  1.00  0.00    +0.127 A 
ATOM     10  C   UNL     1      -3.417  -2.229 -16.384  1.00  0.00    +0.073 A 
ATOM     11  C   UNL     1      -4.478  -1.354 -16.121  1.00  0.00    +0.056 A 
ENDROOT
BRANCH   1  12
ATOM     12  C   UNL     1      -3.100   0.693 -16.628  1.00  0.00    +0.122 C 
ATOM     13  C   UNL     1      -2.939   0.756 -18.139  1.00  0.00    +0.028 C 
ENDBRANCH   1  12
BRANCH   4  14
ATOM     14  C   UNL     1      -7.894   1.133 -15.212  1.00  0.00    +0.004 A 
ATOM     15  C   UNL     1      -8.344   2.024 -16.206  1.00  0.00    +0.039 A 
ATOM     16  C   UNL     1      -8.575   1.072 -13.983  1.00  0.00    +0.029 A 
ATOM     17  C   UNL     1      -9.454   2.840 -15.983  1.00  0.00    +0.079 A 
ATOM     18  C   UNL     1      -9.694   1.874 -13.759  1.00  0.00    +0.057 A 
ATOM     19  C   UNL     1     -10.123   2.740 -14.758  1.00  0.00    +0.147 A 
ATOM     20 Br   UNL     1      -8.014  -0.062 -12.564  1.00  0.00    -0.050 Br
ATOM     21  F   UNL     1     -11.201   3.509 -14.532  1.00  0.00    -0.205 F 
BRANCH  17  22
ATOM     22  N   UNL     1      -9.971   3.755 -16.926  1.00  0.00    -0.305 N 
ATOM     23  C   UNL     1      -9.369   4.915 -17.388  1.00  0.00    +0.323 C 
ATOM     24  O   UNL     1      -8.319   5.368 -16.953  1.00  0.00    -0.248 OA
ATOM     25  N   UNL     1     -10.129   5.475 -18.403  1.00  0.00    -0.308 N 
ATOM     26  H   UNL     1     -10.954   3.641 -17.136  1.00  0.00    +0.171 HD
ATOM     27  H   UNL     1     -10.835   4.878 -18.804  1.00  0.00    +0.171 HD
BRANCH  25  28
ATOM     28  C   UNL     1      -9.913   6.701 -19.064  1.00  0.00    +0.042 A 
ATOM     29  C   UNL     1     -10.196   6.748 -20.436  1.00  0.00    +0.026 A 
ATOM     30  C   UNL     1      -9.459   7.861 -18.432  1.00  0.00    +0.026 A 
ATOM     31  C   UNL     1     -10.017   7.927 -21.163  1.00  0.00    +0.002 A 
ATOM     32  C   UNL     1      -9.280   9.042 -19.160  1.00  0.00    +0.002 A 
ATOM     33  C   UNL     1      -9.558   9.075 -20.524  1.00  0.00    +0.000 A 
ENDBRANCH  25  28
ENDBRANCH  17  22
ENDBRANCH   4  14
BRANCH   9  34
ATOM     34  N   UNL     1      -2.502  -4.442 -16.554  1.00  0.00    -0.373 N 
ATOM     35  C   UNL     1      -1.369  -3.752 -17.150  1.00  0.00    +0.141 C 
ATOM     36  H   UNL     1      -2.822  -5.209 -17.137  1.00  0.00    +0.161 HD
ENDBRANCH   9  34
TORSDOF 5
ENDMDL
MODEL 6
REMARK VINA RESULT:    -8.594      3.969     10.271
REMARK INTER + INTRA:         -11.214
REMARK INTER:                 -10.060
REMARK INTRA:                  -1.154
REMARK UNBOUND:                -0.108
REMARK SMILES CCn1c(=O)c(-c2cc(NC(=O)Nc3ccccc3)c(F)cc2Br)cc2cnc(NC)cc21
REMARK SMILES IDX 3 1 4 2 5 3 6 4 25 5 26 6 27 7 28 8 29 9 32 10 33 11 2 12
REMARK SMILES IDX 1 13 7 14 8 15 23 16 9 17 22 18 20 19 24 20 21 21 10 22
REMARK SMILES IDX 11 23 12 24 13 25 14 28 15 29 19 30 16 31 18 32 17 33 30 34
REMARK SMILES IDX 31 35
REMARK H PARENT 10 26 13 27 30 36
ROOT
ATOM      1  N   UNL     1     -13.096  -0.231  -7.650  1.00  0.00    -0.308 N 
ATOM      2  C   UNL     1     -12.086  -0.054  -8.600  1.00  0.00    +0.258 C 
ATOM      3  O   UNL     1     -11.151   0.734  -8.453  1.00  0.00    -0.269 OA
ATOM      4  C   UNL     1     -12.167  -0.872  -9.856  1.00  0.00    +0.049 C 
ATOM      5  C   UNL     1     -13.205  -1.694 -10.072  1.00  0.00    +0.026 C 
ATOM      6  C   UNL     1     -14.270  -1.807  -9.086  1.00  0.00    +0.018 A 
ATOM      7  C   UNL     1     -15.361  -2.637  -9.299  1.00  0.00    +0.123 A 
ATOM      8  N   UNL     1     -16.385  -2.787  -8.428  1.00  0.00    -0.239 NA
ATOM      9  C   UNL     1     -16.345  -2.078  -7.287  1.00  0.00    +0.127 A 
ATOM     10  C   UNL     1     -15.276  -1.231  -6.989  1.00  0.00    +0.073 A 
ATOM     11  C   UNL     1     -14.218  -1.086  -7.894  1.00  0.00    +0.056 A 
ENDROOT
BRANCH   1  12
ATOM     12  C   UNL     1     -12.998   0.554  -6.421  1.00  0.00    +0.122 C 
ATOM     13  C   UNL     1     -12.186  -0.156  -5.347  1.00  0.00    +0.028 C 
ENDBRANCH   1  12
BRANCH   4  14
ATOM     14  C   UNL     1     -11.099  -0.779 -10.870  1.00  0.00    +0.004 A 
ATOM     15  C   UNL     1     -11.301   0.074 -11.973  1.00  0.00    +0.039 A 
ATOM     16  C   UNL     1      -9.896  -1.500 -10.770  1.00  0.00    +0.029 A 
ATOM     17  C   UNL     1     -10.321   0.210 -12.958  1.00  0.00    +0.079 A 
ATOM     18  C   UNL     1      -8.907  -1.358 -11.742  1.00  0.00    +0.057 A 
ATOM     19  C   UNL     1      -9.126  -0.504 -12.817  1.00  0.00    +0.147 A 
ATOM     20 Br   UNL     1      -9.553  -2.713  -9.346  1.00  0.00    -0.050 Br
ATOM     21  F   UNL     1      -8.169  -0.375 -13.749  1.00  0.00    -0.205 F 
BRANCH  17  22
ATOM     22  N   UNL     1     -10.443   1.046 -14.089  1.00  0.00    -0.305 N 
ATOM     23  C   UNL     1      -9.953   2.335 -14.237  1.00  0.00    +0.323 C 
ATOM     24  O   UNL     1      -9.419   2.977 -13.343  1.00  0.00    -0.248 OA
ATOM     25  N   UNL     1     -10.161   2.778 -15.534  1.00  0.00    -0.308 N 
ATOM     26  H   UNL     1     -11.115   0.736 -14.779  1.00  0.00    +0.171 HD
ATOM     27  H   UNL     1     -10.400   2.067 -16.208  1.00  0.00    +0.171 HD
BRANCH  25  28
ATOM     28  C   UNL     1      -9.896   4.059 -16.059  1.00  0.00    +0.042 A 
ATOM     29  C   UNL     1      -8.692   4.230 -16.756  1.00  0.00    +0.026 A 
ATOM     30  C   UNL     1     -10.765   5.146 -15.943  1.00  0.00    +0.026 A 
ATOM     31  C   UNL     1      -8.359   5.466 -17.314  1.00  0.00    +0.002 A 
ATOM     32  C   UNL     1     -10.431   6.384 -16.502  1.00  0.00    +0.002 A 
ATOM     33  C   UNL     1      -9.229   6.544 -17.187  1.00  0.00    +0.000 A 
ENDBRANCH  25  28
ENDBRANCH  17  22
ENDBRANCH   4  14
BRANCH   9  34
ATOM     34  N   UNL     1     -17.369  -2.206  -6.331  1.00  0.00    -0.373 N 
ATOM     35  C   UNL     1     -18.635  -1.610  -6.727  1.00  0.00    +0.141 C 
ATOM     36  H   UNL     1     -17.043  -1.837  -5.443  1.00  0.00    +0.161 HD
ENDBRANCH   9  34
TORSDOF 5
ENDMDL
MODEL 7
REMARK VINA RESULT:    -8.592      3.420      4.199
REMARK INTER + INTRA:         -11.212
REMARK INTER:                 -11.382
REMARK INTRA:                   0.170
REMARK UNBOUND:                -0.108
REMARK SMILES CCn1c(=O)c(-c2cc(NC(=O)Nc3ccccc3)c(F)cc2Br)cc2cnc(NC)cc21
REMARK SMILES IDX 3 1 4 2 5 3 6 4 25 5 26 6 27 7 28 8 29 9 32 10 33 11 2 12
REMARK SMILES IDX 1 13 7 14 8 15 23 16 9 17 22 18 20 19 24 20 21 21 10 22
REMARK SMILES IDX 11 23 12 24 13 25 14 28 15 29 19 30 16 31 18 32 17 33 30 34
REMARK SMILES IDX 31 35
REMARK H PARENT 10 26 13 27 30 36
ROOT
ATOM      1  N   UNL     1      -6.079   0.130 -14.385  1.00  0.00    -0.308 N 
ATOM      2  C   UNL     1      -7.180   0.117 -13.525  1.00  0.00    +0.258 C 
ATOM      3  O   UNL     1      -7.119  -0.263 -12.355  1.00  0.00    -0.269 OA
ATOM      4  C   UNL     1      -8.492   0.594 -14.076  1.00  0.00    +0.049 C 
ATOM      5  C   UNL     1      -8.604   0.958 -15.362  1.00  0.00    +0.026 C 
ATOM      6  C   UNL     1      -7.448   0.900 -16.245  1.00  0.00    +0.018 A 
ATOM      7  C   UNL     1      -7.546   1.254 -17.583  1.00  0.00    +0.123 A 
ATOM      8  N   UNL     1      -6.515   1.221 -18.457  1.00  0.00    -0.239 NA
ATOM      9  C   UNL     1      -5.319   0.808 -18.000  1.00  0.00    +0.127 A 
ATOM     10  C   UNL     1      -5.132   0.448 -16.664  1.00  0.00    +0.073 A 
ATOM     11  C   UNL     1      -6.204   0.491 -15.766  1.00  0.00    +0.056 A 
ENDROOT
BRANCH   1  12
ATOM     12  C   UNL     1      -4.799  -0.315 -13.835  1.00  0.00    +0.122 C 
ATOM     13  C   UNL     1      -4.610  -1.820 -13.961  1.00  0.00    +0.028 C 
ENDBRANCH   1  12
BRANCH   4  14
ATOM     14  C   UNL     1      -9.679   0.666 -13.202  1.00  0.00    +0.004 A 
ATOM     15  C   UNL     1      -9.968  -0.441 -12.380  1.00  0.00    +0.039 A 
ATOM     16  C   UNL     1     -10.517   1.794 -13.157  1.00  0.00    +0.029 A 
ATOM     17  C   UNL     1     -11.072  -0.425 -11.525  1.00  0.00    +0.079 A 
ATOM     18  C   UNL     1     -11.613   1.823 -12.294  1.00  0.00    +0.057 A 
ATOM     19  C   UNL     1     -11.873   0.722 -11.487  1.00  0.00    +0.147 A 
ATOM     20 Br   UNL     1     -10.237   3.314 -14.264  1.00  0.00    -0.050 Br
ATOM     21  F   UNL     1     -12.931   0.758 -10.661  1.00  0.00    -0.205 F 
BRANCH  17  22
ATOM     22  N   UNL     1     -11.427  -1.488 -10.667  1.00  0.00    -0.305 N 
ATOM     23  C   UNL     1     -11.422  -2.843 -10.962  1.00  0.00    +0.323 C 
ATOM     24  O   UNL     1     -11.197  -3.307 -12.071  1.00  0.00    -0.248 OA
ATOM     25  N   UNL     1     -11.710  -3.580  -9.824  1.00  0.00    -0.308 N 
ATOM     26  H   UNL     1     -11.910  -1.212  -9.822  1.00  0.00    +0.171 HD
ATOM     27  H   UNL     1     -11.647  -3.082  -8.950  1.00  0.00    +0.171 HD
BRANCH  25  28
ATOM     28  C   UNL     1     -11.894  -4.974  -9.725  1.00  0.00    +0.042 A 
ATOM     29  C   UNL     1     -10.862  -5.716  -9.133  1.00  0.00    +0.026 A 
ATOM     30  C   UNL     1     -13.040  -5.644 -10.157  1.00  0.00    +0.026 A 
ATOM     31  C   UNL     1     -10.970  -7.101  -8.989  1.00  0.00    +0.002 A 
ATOM     32  C   UNL     1     -13.148  -7.031 -10.013  1.00  0.00    +0.002 A 
ATOM     33  C   UNL     1     -12.114  -7.760  -9.430  1.00  0.00    +0.000 A 
ENDBRANCH  25  28
ENDBRANCH  17  22
ENDBRANCH   4  14
BRANCH   9  34
ATOM     34  N   UNL     1      -4.203   0.772 -18.854  1.00  0.00    -0.373 N 
ATOM     35  C   UNL     1      -3.236  -0.266 -18.531  1.00  0.00    +0.141 C 
ATOM     36  H   UNL     1      -3.772   1.691 -18.877  1.00  0.00    +0.161 HD
ENDBRANCH   9  34
TORSDOF 5
ENDMDL
MODEL 8
REMARK VINA RESULT:    -8.503      3.972      7.397
REMARK INTER + INTRA:         -11.097
REMARK INTER:                 -11.018
REMARK INTRA:                  -0.080
REMARK UNBOUND:                -0.108
REMARK SMILES CCn1c(=O)c(-c2cc(NC(=O)Nc3ccccc3)c(F)cc2Br)cc2cnc(NC)cc21
REMARK SMILES IDX 3 1 4 2 5 3 6 4 25 5 26 6 27 7 28 8 29 9 32 10 33 11 2 12
REMARK SMILES IDX 1 13 7 14 8 15 23 16 9 17 22 18 20 19 24 20 21 21 10 22
REMARK SMILES IDX 11 23 12 24 13 25 14 28 15 29 19 30 16 31 18 32 17 33 30 34
REMARK SMILES IDX 31 35
REMARK H PARENT 10 26 13 27 30 36
ROOT
ATOM      1  N   UNL     1      -5.586  -0.078 -13.771  1.00  0.00    -0.308 N 
ATOM      2  C   UNL     1      -6.788   0.615 -13.607  1.00  0.00    +0.258 C 
ATOM      3  O   UNL     1      -7.208   0.988 -12.511  1.00  0.00    -0.269 OA
ATOM      4  C   UNL     1      -7.592   0.906 -14.840  1.00  0.00    +0.049 C 
ATOM      5  C   UNL     1      -7.190   0.462 -16.041  1.00  0.00    +0.026 C 
ATOM      6  C   UNL     1      -5.962  -0.310 -16.165  1.00  0.00    +0.018 A 
ATOM      7  C   UNL     1      -5.539  -0.796 -17.393  1.00  0.00    +0.123 A 
ATOM      8  N   UNL     1      -4.413  -1.520 -17.579  1.00  0.00    -0.239 NA
ATOM      9  C   UNL     1      -3.659  -1.795 -16.500  1.00  0.00    +0.127 A 
ATOM     10  C   UNL     1      -4.006  -1.332 -15.229  1.00  0.00    +0.073 A 
ATOM     11  C   UNL     1      -5.172  -0.578 -15.048  1.00  0.00    +0.056 A 
ENDROOT
BRANCH   1  12
ATOM     12  C   UNL     1      -4.798  -0.339 -12.567  1.00  0.00    +0.122 C 
ATOM     13  C   UNL     1      -5.176  -1.656 -11.906  1.00  0.00    +0.028 C 
ENDBRANCH   1  12
BRANCH   4  14
ATOM     14  C   UNL     1      -8.838   1.690 -14.744  1.00  0.00    +0.004 A 
ATOM     15  C   UNL     1      -8.886   2.946 -15.380  1.00  0.00    +0.039 A 
ATOM     16  C   UNL     1      -9.972   1.227 -14.052  1.00  0.00    +0.029 A 
ATOM     17  C   UNL     1     -10.041   3.727 -15.331  1.00  0.00    +0.079 A 
ATOM     18  C   UNL     1     -11.135   1.995 -14.012  1.00  0.00    +0.057 A 
ATOM     19  C   UNL     1     -11.159   3.227 -14.654  1.00  0.00    +0.147 A 
ATOM     20 Br   UNL     1      -9.987  -0.431 -13.122  1.00  0.00    -0.050 Br
ATOM     21  F   UNL     1     -12.283   3.960 -14.609  1.00  0.00    -0.205 F 
BRANCH  17  22
ATOM     22  N   UNL     1     -10.172   4.992 -15.945  1.00  0.00    -0.305 N 
ATOM     23  C   UNL     1      -9.853   5.328 -17.252  1.00  0.00    +0.323 C 
ATOM     24  O   UNL     1      -9.303   4.574 -18.044  1.00  0.00    -0.248 OA
ATOM     25  N   UNL     1     -10.242   6.632 -17.518  1.00  0.00    -0.308 N 
ATOM     26  H   UNL     1     -10.338   5.760 -15.308  1.00  0.00    +0.171 HD
ATOM     27  H   UNL     1     -10.877   7.044 -16.853  1.00  0.00    +0.171 HD
BRANCH  25  28
ATOM     28  C   UNL     1     -10.010   7.377 -18.692  1.00  0.00    +0.042 A 
ATOM     29  C   UNL     1     -10.448   6.820 -19.901  1.00  0.00    +0.026 A 
ATOM     30  C   UNL     1      -9.395   8.630 -18.713  1.00  0.00    +0.026 A 
ATOM     31  C   UNL     1     -10.265   7.499 -21.108  1.00  0.00    +0.002 A 
ATOM     32  C   UNL     1      -9.211   9.310 -19.922  1.00  0.00    +0.002 A 
ATOM     33  C   UNL     1      -9.645   8.745 -21.118  1.00  0.00    +0.000 A 
ENDBRANCH  25  28
ENDBRANCH  17  22
ENDBRANCH   4  14
BRANCH   9  34
ATOM     34  N   UNL     1      -2.465  -2.526 -16.630  1.00  0.00    -0.373 N 
ATOM     35  C   UNL     1      -1.613  -2.088 -17.724  1.00  0.00    +0.141 C 
ATOM     36  H   UNL     1      -2.687  -3.514 -16.700  1.00  0.00    +0.161 HD
ENDBRANCH   9  34
TORSDOF 5
ENDMDL
MODEL 9
REMARK VINA RESULT:    -8.373      3.779      5.655
REMARK INTER + INTRA:         -10.928
REMARK INTER:                 -12.111
REMARK INTRA:                   1.183
REMARK UNBOUND:                -0.108
REMARK SMILES CCn1c(=O)c(-c2cc(NC(=O)Nc3ccccc3)c(F)cc2Br)cc2cnc(NC)cc21
REMARK SMILES IDX 3 1 4 2 5 3 6 4 25 5 26 6 27 7 28 8 29 9 32 10 33 11 2 12
REMARK SMILES IDX 1 13 7 14 8 15 23 16 9 17 22 18 20 19 24 20 21 21 10 22
REMARK SMILES IDX 11 23 12 24 13 25 14 28 15 29 19 30 16 31 18 32 17 33 30 34
REMARK SMILES IDX 31 35
REMARK H PARENT 10 26 13 27 30 36
ROOT
ATOM      1  N   UNL     1     -10.348   4.731 -15.841  1.00  0.00    -0.308 N 
ATOM      2  C   UNL     1      -9.747   3.730 -15.073  1.00  0.00    +0.258 C 
ATOM      3  O   UNL     1     -10.150   3.402 -13.956  1.00  0.00    -0.269 OA
ATOM      4  C   UNL     1      -8.551   3.035 -15.656  1.00  0.00    +0.049 C 
ATOM      5  C   UNL     1      -8.052   3.410 -16.844  1.00  0.00    +0.026 C 
ATOM      6  C   UNL     1      -8.668   4.499 -17.588  1.00  0.00    +0.018 A 
ATOM      7  C   UNL     1      -8.157   4.915 -18.809  1.00  0.00    +0.123 A 
ATOM      8  N   UNL     1      -8.677   5.919 -19.550  1.00  0.00    -0.239 NA
ATOM      9  C   UNL     1      -9.755   6.561 -19.067  1.00  0.00    +0.127 A 
ATOM     10  C   UNL     1     -10.341   6.195 -17.853  1.00  0.00    +0.073 A 
ATOM     11  C   UNL     1      -9.798   5.151 -17.095  1.00  0.00    +0.056 A 
ENDROOT
BRANCH   1  12
ATOM     12  C   UNL     1     -11.525   5.388 -15.275  1.00  0.00    +0.122 C 
ATOM     13  C   UNL     1     -12.684   4.422 -15.077  1.00  0.00    +0.028 C 
ENDBRANCH   1  12
BRANCH   4  14
ATOM     14  C   UNL     1      -7.910   1.927 -14.924  1.00  0.00    +0.004 A 
ATOM     15  C   UNL     1      -8.646   1.286 -13.908  1.00  0.00    +0.039 A 
ATOM     16  C   UNL     1      -6.605   1.486 -15.209  1.00  0.00    +0.029 A 
ATOM     17  C   UNL     1      -8.095   0.224 -13.189  1.00  0.00    +0.079 A 
ATOM     18  C   UNL     1      -6.053   0.416 -14.505  1.00  0.00    +0.057 A 
ATOM     19  C   UNL     1      -6.803  -0.204 -13.512  1.00  0.00    +0.147 A 
ATOM     20 Br   UNL     1      -5.516   2.319 -16.527  1.00  0.00    -0.050 Br
ATOM     21  F   UNL     1      -6.263  -1.233 -12.839  1.00  0.00    -0.205 F 
BRANCH  17  22
ATOM     22  N   UNL     1      -8.767  -0.474 -12.161  1.00  0.00    -0.305 N 
ATOM     23  C   UNL     1     -10.020  -1.064 -12.227  1.00  0.00    +0.323 C 
ATOM     24  O   UNL     1     -10.777  -0.970 -13.183  1.00  0.00    -0.248 OA
ATOM     25  N   UNL     1     -10.279  -1.763 -11.059  1.00  0.00    -0.308 N 
ATOM     26  H   UNL     1      -8.367  -0.362 -11.239  1.00  0.00    +0.171 HD
ATOM     27  H   UNL     1      -9.484  -1.938 -10.466  1.00  0.00    +0.171 HD
BRANCH  25  28
ATOM     28  C   UNL     1     -11.474  -2.416 -10.694  1.00  0.00    +0.042 A 
ATOM     29  C   UNL     1     -12.417  -1.671  -9.973  1.00  0.00    +0.026 A 
ATOM     30  C   UNL     1     -11.775  -3.738 -11.026  1.00  0.00    +0.026 A 
ATOM     31  C   UNL     1     -13.631  -2.241  -9.581  1.00  0.00    +0.002 A 
ATOM     32  C   UNL     1     -12.990  -4.310 -10.634  1.00  0.00    +0.002 A 
ATOM     33  C   UNL     1     -13.917  -3.562  -9.912  1.00  0.00    +0.000 A 
ENDBRANCH  25  28
ENDBRANCH  17  22
ENDBRANCH   4  14
BRANCH   9  34
ATOM     34  N   UNL     1     -10.356   7.600 -19.800  1.00  0.00    -0.373 N 
ATOM     35  C   UNL     1      -9.995   7.623 -21.209  1.00  0.00    +0.141 C 
ATOM     36  H   UNL     1     -10.154   8.486 -19.347  1.00  0.00    +0.161 HD
ENDBRANCH   9  34
TORSDOF 5
ENDMDL
MODEL 10
REMARK VINA RESULT:    -8.340      5.181      8.345
REMARK INTER + INTRA:         -10.886
REMARK INTER:                  -9.795
REMARK INTRA:                  -1.090
REMARK UNBOUND:                -0.108
REMARK SMILES CCn1c(=O)c(-c2cc(NC(=O)Nc3ccccc3)c(F)cc2Br)cc2cnc(NC)cc21
REMARK SMILES IDX 3 1 4 2 5 3 6 4 25 5 26 6 27 7 28 8 29 9 32 10 33 11 2 12
REMARK SMILES IDX 1 13 7 14 8 15 23 16 9 17 22 18 20 19 24 20 21 21 10 22
REMARK SMILES IDX 11 23 12 24 13 25 14 28 15 29 19 30 16 31 18 32 17 33 30 34
REMARK SMILES IDX 31 35
REMARK H PARENT 10 26 13 27 30 36
ROOT
ATOM      1  N   UNL     1      -3.179  -3.341 -16.020  1.00  0.00    -0.308 N 
ATOM      2  C   UNL     1      -3.949  -2.362 -15.386  1.00  0.00    +0.258 C 
ATOM      3  O   UNL     1      -3.518  -1.246 -15.096  1.00  0.00    -0.269 OA
ATOM      4  C   UNL     1      -5.370  -2.711 -15.050  1.00  0.00    +0.049 C 
ATOM      5  C   UNL     1      -5.852  -3.938 -15.301  1.00  0.00    +0.026 C 
ATOM      6  C   UNL     1      -5.000  -4.952 -15.906  1.00  0.00    +0.018 A 
ATOM      7  C   UNL     1      -5.473  -6.232 -16.155  1.00  0.00    +0.123 A 
ATOM      8  N   UNL     1      -4.737  -7.220 -16.712  1.00  0.00    -0.239 NA
ATOM      9  C   UNL     1      -3.461  -6.945 -17.036  1.00  0.00    +0.127 A 
ATOM     10  C   UNL     1      -2.912  -5.678 -16.832  1.00  0.00    +0.073 A 
ATOM     11  C   UNL     1      -3.684  -4.660 -16.260  1.00  0.00    +0.056 A 
ENDROOT
BRANCH   1  12
ATOM     12  C   UNL     1      -1.803  -2.986 -16.363  1.00  0.00    +0.122 C 
ATOM     13  C   UNL     1      -1.712  -2.252 -17.693  1.00  0.00    +0.028 C 
ENDBRANCH   1  12
BRANCH   4  14
ATOM     14  C   UNL     1      -6.256  -1.702 -14.439  1.00  0.00    +0.004 A 
ATOM     15  C   UNL     1      -6.939  -0.812 -15.292  1.00  0.00    +0.039 A 
ATOM     16  C   UNL     1      -6.445  -1.603 -13.049  1.00  0.00    +0.029 A 
ATOM     17  C   UNL     1      -7.798   0.157 -14.772  1.00  0.00    +0.079 A 
ATOM     18  C   UNL     1      -7.314  -0.648 -12.523  1.00  0.00    +0.057 A 
ATOM     19  C   UNL     1      -7.982   0.213 -13.385  1.00  0.00    +0.147 A 
ATOM     20 Br   UNL     1      -5.529  -2.725 -11.817  1.00  0.00    -0.050 Br
ATOM     21  F   UNL     1      -8.815   1.131 -12.869  1.00  0.00    -0.205 F 
BRANCH  17  22
ATOM     22  N   UNL     1      -8.523   1.080 -15.556  1.00  0.00    -0.305 N 
ATOM     23  C   UNL     1      -8.228   2.419 -15.763  1.00  0.00    +0.323 C 
ATOM     24  O   UNL     1      -7.329   3.024 -15.196  1.00  0.00    -0.248 OA
ATOM     25  N   UNL     1      -9.100   2.960 -16.696  1.00  0.00    -0.308 N 
ATOM     26  H   UNL     1      -9.445   0.772 -15.835  1.00  0.00    +0.171 HD
ATOM     27  H   UNL     1      -9.631   2.297 -17.237  1.00  0.00    +0.171 HD
BRANCH  25  28
ATOM     28  C   UNL     1      -9.194   4.306 -17.106  1.00  0.00    +0.042 A 
ATOM     29  C   UNL     1      -8.373   4.710 -18.168  1.00  0.00    +0.026 A 
ATOM     30  C   UNL     1     -10.063   5.237 -16.536  1.00  0.00    +0.026 A 
ATOM     31  C   UNL     1      -8.413   6.024 -18.641  1.00  0.00    +0.002 A 
ATOM     32  C   UNL     1     -10.102   6.553 -17.010  1.00  0.00    +0.002 A 
ATOM     33  C   UNL     1      -9.278   6.946 -18.061  1.00  0.00    +0.000 A 
ENDBRANCH  25  28
ENDBRANCH  17  22
ENDBRANCH   4  14
BRANCH   9  34
ATOM     34  N   UNL     1      -2.651  -7.924 -17.638  1.00  0.00    -0.373 N 
ATOM     35  C   UNL     1      -1.326  -7.455 -18.014  1.00  0.00    +0.141 C 
ATOM     36  H   UNL     1      -3.145  -8.324 -18.430  1.00  0.00    +0.161 HD
ENDBRANCH   9  34
TORSDOF 5
ENDMDL
