MODEL 1
REMARK VINA RESULT:    -8.215      0.000      0.000
REMARK INTER + INTRA:         -11.899
REMARK INTER:                 -11.096
REMARK INTRA:                  -0.803
REMARK UNBOUND:                -0.803
REMARK SMILES COc1cc2nccc(Oc3ccc(NC(=O)NC4CC4)c(Cl)c3)c2cc1C(N)=O
REMARK SMILES IDX 10 1 9 2 3 3 4 4 27 5 5 6 26 7 6 8 25 9 7 10 8 11 2 12 1 13
REMARK SMILES IDX 28 14 29 15 30 16 11 19 12 20 24 21 13 22 22 23 14 24 23 25
REMARK SMILES IDX 15 26 16 27 17 28 18 29 19 32 20 33 21 34
REMARK H PARENT 29 17 29 18 15 30 18 31
ROOT
ATOM      1  O   UNL     1      -9.500   1.331 -12.791  1.00  0.00    -0.457 OA
ENDROOT
BRANCH   1   2
ATOM      2  C   UNL     1     -10.712   1.971 -12.941  1.00  0.00    +0.138 A 
ATOM      3  C   UNL     1     -13.998   0.991 -10.463  1.00  0.00    +0.133 A 
ATOM      4  C   UNL     1     -14.086   1.940 -11.496  1.00  0.00    +0.076 A 
ATOM      5  C   UNL     1     -12.773   0.336 -10.246  1.00  0.00    +0.082 A 
ATOM      6  C   UNL     1     -13.009   2.260 -12.313  1.00  0.00    +0.078 A 
ATOM      7  C   UNL     1     -11.678   0.654 -11.067  1.00  0.00    +0.032 A 
ATOM      8  N   UNL     1     -13.183   3.178 -13.280  1.00  0.00    -0.256 NA
ATOM      9  C   UNL     1     -11.782   1.611 -12.098  1.00  0.00    +0.044 A 
ATOM     10  C   UNL     1     -12.137   3.477 -14.081  1.00  0.00    +0.115 A 
ATOM     11  C   UNL     1     -10.891   2.900 -13.960  1.00  0.00    +0.068 A 
BRANCH   3  12
ATOM     12  O   UNL     1     -15.056   0.668  -9.650  1.00  0.00    -0.496 OA
ATOM     13  C   UNL     1     -15.152   1.319  -8.386  1.00  0.00    +0.278 C 
ENDBRANCH   3  12
BRANCH   5  14
ATOM     14  C   UNL     1     -12.524  -0.696  -9.190  1.00  0.00    +0.252 C 
ATOM     15  N   UNL     1     -13.335  -1.790  -9.142  1.00  0.00    -0.365 N 
ATOM     16  O   UNL     1     -11.614  -0.575  -8.376  1.00  0.00    -0.269 OA
ATOM     17  H   UNL     1     -13.171  -2.484  -8.427  1.00  0.00    +0.159 HD
ATOM     18  H   UNL     1     -14.098  -1.912  -9.797  1.00  0.00    +0.159 HD
ENDBRANCH   5  14
ENDBRANCH   1   2
BRANCH   1  19
ATOM     19  C   UNL     1      -8.697   1.225 -13.906  1.00  0.00    +0.129 A 
ATOM     20  C   UNL     1      -8.928   0.318 -14.940  1.00  0.00    +0.049 A 
ATOM     21  C   UNL     1      -7.649   2.137 -14.001  1.00  0.00    +0.069 A 
ATOM     22  C   UNL     1      -8.082   0.290 -16.055  1.00  0.00    +0.031 A 
ATOM     23  C   UNL     1      -6.808   2.109 -15.117  1.00  0.00    +0.068 A 
ATOM     24  C   UNL     1      -7.006   1.178 -16.154  1.00  0.00    +0.061 A 
ATOM     25 Cl   UNL     1      -5.509   3.255 -15.186  1.00  0.00    -0.082 Cl
BRANCH  24  26
ATOM     26  N   UNL     1      -6.125   1.202 -17.260  1.00  0.00    -0.307 N 
ATOM     27  C   UNL     1      -4.924   0.540 -17.400  1.00  0.00    +0.319 C 
ATOM     28  O   UNL     1      -4.358  -0.125 -16.540  1.00  0.00    -0.248 OA
ATOM     29  N   UNL     1      -4.395   0.743 -18.666  1.00  0.00    -0.335 N 
ATOM     30  H   UNL     1      -6.332   1.903 -17.959  1.00  0.00    +0.171 HD
ATOM     31  H   UNL     1      -5.062   0.959 -19.392  1.00  0.00    +0.165 HD
BRANCH  29  32
ATOM     32  C   UNL     1      -3.171   0.121 -19.071  1.00  0.00    +0.084 C 
ATOM     33  C   UNL     1      -2.588   0.394 -20.430  1.00  0.00    +0.027 C 
ATOM     34  C   UNL     1      -1.911   0.933 -19.205  1.00  0.00    +0.027 C 
ENDBRANCH  29  32
ENDBRANCH  24  26
ENDBRANCH   1  19
TORSDOF 6
ENDMDL
MODEL 2
REMARK VINA RESULT:    -8.204      3.134     10.445
REMARK INTER + INTRA:         -11.885
REMARK INTER:                 -12.120
REMARK INTRA:                   0.236
REMARK UNBOUND:                -0.803
REMARK SMILES COc1cc2nccc(Oc3ccc(NC(=O)NC4CC4)c(Cl)c3)c2cc1C(N)=O
REMARK SMILES IDX 10 1 9 2 3 3 4 4 27 5 5 6 26 7 6 8 25 9 7 10 8 11 2 12 1 13
REMARK SMILES IDX 28 14 29 15 30 16 11 19 12 20 24 21 13 22 22 23 14 24 23 25
REMARK SMILES IDX 15 26 16 27 17 28 18 29 19 32 20 33 21 34
REMARK H PARENT 29 17 29 18 15 30 18 31
ROOT
ATOM      1  O   UNL     1     -10.771   1.666 -12.477  1.00  0.00    -0.457 OA
ENDROOT
BRANCH   1   2
ATOM      2  C   UNL     1     -10.994   2.650 -13.417  1.00  0.00    +0.138 A 
ATOM      3  C   UNL     1      -8.438   3.067 -16.762  1.00  0.00    +0.133 A 
ATOM      4  C   UNL     1      -9.520   3.932 -16.524  1.00  0.00    +0.076 A 
ATOM      5  C   UNL     1      -8.190   2.024 -15.852  1.00  0.00    +0.082 A 
ATOM      6  C   UNL     1     -10.358   3.798 -15.424  1.00  0.00    +0.078 A 
ATOM      7  C   UNL     1      -9.033   1.881 -14.736  1.00  0.00    +0.032 A 
ATOM      8  N   UNL     1     -11.368   4.673 -15.272  1.00  0.00    -0.256 NA
ATOM      9  C   UNL     1     -10.116   2.757 -14.513  1.00  0.00    +0.044 A 
ATOM     10  C   UNL     1     -12.172   4.548 -14.194  1.00  0.00    +0.115 A 
ATOM     11  C   UNL     1     -12.025   3.566 -13.239  1.00  0.00    +0.068 A 
BRANCH   3  12
ATOM     12  O   UNL     1      -7.605   3.189 -17.846  1.00  0.00    -0.496 OA
ATOM     13  C   UNL     1      -6.946   4.436 -18.048  1.00  0.00    +0.278 C 
ENDBRANCH   3  12
BRANCH   5  14
ATOM     14  C   UNL     1      -7.079   1.026 -15.967  1.00  0.00    +0.252 C 
ATOM     15  N   UNL     1      -7.063   0.191 -17.044  1.00  0.00    -0.365 N 
ATOM     16  O   UNL     1      -6.196   0.947 -15.120  1.00  0.00    -0.269 OA
ATOM     17  H   UNL     1      -6.318  -0.487 -17.120  1.00  0.00    +0.159 HD
ATOM     18  H   UNL     1      -7.783   0.229 -17.755  1.00  0.00    +0.159 HD
ENDBRANCH   5  14
ENDBRANCH   1   2
BRANCH   1  19
ATOM     19  C   UNL     1     -11.839   1.284 -11.694  1.00  0.00    +0.129 A 
ATOM     20  C   UNL     1     -13.090   1.897 -11.745  1.00  0.00    +0.049 A 
ATOM     21  C   UNL     1     -11.637   0.179 -10.870  1.00  0.00    +0.069 A 
ATOM     22  C   UNL     1     -14.135   1.432 -10.937  1.00  0.00    +0.031 A 
ATOM     23  C   UNL     1     -12.683  -0.284 -10.068  1.00  0.00    +0.068 A 
ATOM     24  C   UNL     1     -13.943   0.343 -10.081  1.00  0.00    +0.061 A 
ATOM     25 Cl   UNL     1     -12.382  -1.654  -9.050  1.00  0.00    -0.082 Cl
BRANCH  24  26
ATOM     26  N   UNL     1     -14.964  -0.174  -9.250  1.00  0.00    -0.307 N 
ATOM     27  C   UNL     1     -15.665   0.483  -8.262  1.00  0.00    +0.319 C 
ATOM     28  O   UNL     1     -15.463   1.624  -7.865  1.00  0.00    -0.248 OA
ATOM     29  N   UNL     1     -16.648  -0.337  -7.729  1.00  0.00    -0.335 N 
ATOM     30  H   UNL     1     -15.079  -1.178  -9.287  1.00  0.00    +0.171 HD
ATOM     31  H   UNL     1     -16.987  -1.070  -8.335  1.00  0.00    +0.165 HD
BRANCH  29  32
ATOM     32  C   UNL     1     -17.543   0.133  -6.715  1.00  0.00    +0.084 C 
ATOM     33  C   UNL     1     -18.776   0.910  -7.083  1.00  0.00    +0.027 C 
ATOM     34  C   UNL     1     -18.904  -0.487  -6.551  1.00  0.00    +0.027 C 
ENDBRANCH  29  32
ENDBRANCH  24  26
ENDBRANCH   1  19
TORSDOF 6
ENDMDL
MODEL 3
REMARK VINA RESULT:    -8.167      3.590      4.791
REMARK INTER + INTRA:         -11.835
REMARK INTER:                 -11.093
REMARK INTRA:                  -0.742
REMARK UNBOUND:                -0.803
REMARK SMILES COc1cc2nccc(Oc3ccc(NC(=O)NC4CC4)c(Cl)c3)c2cc1C(N)=O
REMARK SMILES IDX 10 1 9 2 3 3 4 4 27 5 5 6 26 7 6 8 25 9 7 10 8 11 2 12 1 13
REMARK SMILES IDX 28 14 29 15 30 16 11 19 12 20 24 21 13 22 22 23 14 24 23 25
REMARK SMILES IDX 15 26 16 27 17 28 18 29 19 32 20 33 21 34
REMARK H PARENT 29 17 29 18 15 30 18 31
ROOT
ATOM      1  O   UNL     1      -8.591   2.603 -17.271  1.00  0.00    -0.457 OA
ENDROOT
BRANCH   1   2
ATOM      2  C   UNL     1      -9.411   3.544 -16.684  1.00  0.00    +0.138 A 
ATOM      3  C   UNL     1     -11.606   2.622 -13.187  1.00  0.00    +0.133 A 
ATOM      4  C   UNL     1     -11.698   3.867 -13.832  1.00  0.00    +0.076 A 
ATOM      5  C   UNL     1     -10.756   1.640 -13.726  1.00  0.00    +0.082 A 
ATOM      6  C   UNL     1     -10.981   4.170 -14.983  1.00  0.00    +0.078 A 
ATOM      7  C   UNL     1     -10.025   1.938 -14.889  1.00  0.00    +0.032 A 
ATOM      8  N   UNL     1     -11.133   5.386 -15.535  1.00  0.00    -0.256 NA
ATOM      9  C   UNL     1     -10.128   3.194 -15.523  1.00  0.00    +0.044 A 
ATOM     10  C   UNL     1     -10.444   5.672 -16.662  1.00  0.00    +0.115 A 
ATOM     11  C   UNL     1      -9.582   4.790 -17.277  1.00  0.00    +0.068 A 
BRANCH   3  12
ATOM     12  O   UNL     1     -12.309   2.312 -12.049  1.00  0.00    -0.496 OA
ATOM     13  C   UNL     1     -13.732   2.352 -12.109  1.00  0.00    +0.278 C 
ENDBRANCH   3  12
BRANCH   5  14
ATOM     14  C   UNL     1     -10.552   0.270 -13.156  1.00  0.00    +0.252 C 
ATOM     15  N   UNL     1     -10.507   0.128 -11.801  1.00  0.00    -0.365 N 
ATOM     16  O   UNL     1     -10.424  -0.713 -13.878  1.00  0.00    -0.269 OA
ATOM     17  H   UNL     1     -10.364  -0.795 -11.416  1.00  0.00    +0.159 HD
ATOM     18  H   UNL     1     -10.602   0.923 -11.181  1.00  0.00    +0.159 HD
ENDBRANCH   5  14
ENDBRANCH   1   2
BRANCH   1  19
ATOM     19  C   UNL     1      -7.534   2.131 -16.525  1.00  0.00    +0.129 A 
ATOM     20  C   UNL     1      -6.726   2.944 -15.731  1.00  0.00    +0.049 A 
ATOM     21  C   UNL     1      -7.336   0.752 -16.538  1.00  0.00    +0.069 A 
ATOM     22  C   UNL     1      -5.686   2.383 -14.979  1.00  0.00    +0.031 A 
ATOM     23  C   UNL     1      -6.300   0.196 -15.784  1.00  0.00    +0.068 A 
ATOM     24  C   UNL     1      -5.453   1.005 -15.002  1.00  0.00    +0.061 A 
ATOM     25 Cl   UNL     1      -6.084  -1.523 -15.841  1.00  0.00    -0.082 Cl
BRANCH  24  26
ATOM     26  N   UNL     1      -4.424   0.383 -14.257  1.00  0.00    -0.307 N 
ATOM     27  C   UNL     1      -4.528  -0.255 -13.040  1.00  0.00    +0.319 C 
ATOM     28  O   UNL     1      -5.530  -0.321 -12.338  1.00  0.00    -0.248 OA
ATOM     29  N   UNL     1      -3.314  -0.816 -12.675  1.00  0.00    -0.335 N 
ATOM     30  H   UNL     1      -3.486   0.565 -14.587  1.00  0.00    +0.171 HD
ATOM     31  H   UNL     1      -2.687  -1.043 -13.432  1.00  0.00    +0.165 HD
BRANCH  29  32
ATOM     32  C   UNL     1      -3.175  -1.574 -11.468  1.00  0.00    +0.084 C 
ATOM     33  C   UNL     1      -1.918  -2.351 -11.192  1.00  0.00    +0.027 C 
ATOM     34  C   UNL     1      -2.230  -1.124 -10.388  1.00  0.00    +0.027 C 
ENDBRANCH  29  32
ENDBRANCH  24  26
ENDBRANCH   1  19
TORSDOF 6
ENDMDL
MODEL 4
REMARK VINA RESULT:    -7.985      5.614      9.511
REMARK INTER + INTRA:         -11.589
REMARK INTER:                 -10.823
REMARK INTRA:                  -0.765
REMARK UNBOUND:                -0.803
REMARK SMILES COc1cc2nccc(Oc3ccc(NC(=O)NC4CC4)c(Cl)c3)c2cc1C(N)=O
REMARK SMILES IDX 10 1 9 2 3 3 4 4 27 5 5 6 26 7 6 8 25 9 7 10 8 11 2 12 1 13
REMARK SMILES IDX 28 14 29 15 30 16 11 19 12 20 24 21 13 22 22 23 14 24 23 25
REMARK SMILES IDX 15 26 16 27 17 28 18 29 19 32 20 33 21 34
REMARK H PARENT 29 17 29 18 15 30 18 31
ROOT
ATOM      1  O   UNL     1      -5.479   2.160 -14.339  1.00  0.00    -0.457 OA
ENDROOT
BRANCH   1   2
ATOM      2  C   UNL     1      -5.521   0.783 -14.405  1.00  0.00    +0.138 A 
ATOM      3  C   UNL     1      -2.909  -1.342 -16.965  1.00  0.00    +0.133 A 
ATOM      4  C   UNL     1      -3.881  -1.981 -16.176  1.00  0.00    +0.076 A 
ATOM      5  C   UNL     1      -2.802   0.058 -16.908  1.00  0.00    +0.082 A 
ATOM      6  C   UNL     1      -4.742  -1.284 -15.337  1.00  0.00    +0.078 A 
ATOM      7  C   UNL     1      -3.668   0.771 -16.061  1.00  0.00    +0.032 A 
ATOM      8  N   UNL     1      -5.644  -1.976 -14.620  1.00  0.00    -0.256 NA
ATOM      9  C   UNL     1      -4.637   0.115 -15.274  1.00  0.00    +0.044 A 
ATOM     10  C   UNL     1      -6.488  -1.294 -13.816  1.00  0.00    +0.115 A 
ATOM     11  C   UNL     1      -6.474   0.077 -13.679  1.00  0.00    +0.068 A 
BRANCH   3  12
ATOM     12  O   UNL     1      -2.053  -2.022 -17.796  1.00  0.00    -0.496 OA
ATOM     13  C   UNL     1      -1.405  -3.183 -17.287  1.00  0.00    +0.278 C 
ENDBRANCH   3  12
BRANCH   5  14
ATOM     14  C   UNL     1      -1.821   0.880 -17.686  1.00  0.00    +0.252 C 
ATOM     15  N   UNL     1      -2.214   1.404 -18.882  1.00  0.00    -0.365 N 
ATOM     16  O   UNL     1      -0.685   1.086 -17.273  1.00  0.00    -0.269 OA
ATOM     17  H   UNL     1      -1.552   1.953 -19.410  1.00  0.00    +0.159 HD
ATOM     18  H   UNL     1      -3.143   1.244 -19.251  1.00  0.00    +0.159 HD
ENDBRANCH   5  14
ENDBRANCH   1   2
BRANCH   1  19
ATOM     19  C   UNL     1      -6.147   2.861 -15.320  1.00  0.00    +0.129 A 
ATOM     20  C   UNL     1      -5.505   3.524 -16.366  1.00  0.00    +0.049 A 
ATOM     21  C   UNL     1      -7.538   2.825 -15.267  1.00  0.00    +0.069 A 
ATOM     22  C   UNL     1      -6.256   4.192 -17.341  1.00  0.00    +0.031 A 
ATOM     23  C   UNL     1      -8.284   3.490 -16.244  1.00  0.00    +0.068 A 
ATOM     24  C   UNL     1      -7.653   4.192 -17.288  1.00  0.00    +0.061 A 
ATOM     25 Cl   UNL     1     -10.012   3.428 -16.130  1.00  0.00    -0.082 Cl
BRANCH  24  26
ATOM     26  N   UNL     1      -8.462   4.842 -18.250  1.00  0.00    -0.307 N 
ATOM     27  C   UNL     1      -8.965   6.125 -18.205  1.00  0.00    +0.319 C 
ATOM     28  O   UNL     1      -8.870   6.909 -17.269  1.00  0.00    -0.248 OA
ATOM     29  N   UNL     1      -9.638   6.429 -19.379  1.00  0.00    -0.335 N 
ATOM     30  H   UNL     1      -8.833   4.242 -18.974  1.00  0.00    +0.171 HD
ATOM     31  H   UNL     1      -9.353   5.912 -20.197  1.00  0.00    +0.165 HD
BRANCH  29  32
ATOM     32  C   UNL     1     -10.214   7.722 -19.594  1.00  0.00    +0.084 C 
ATOM     33  C   UNL     1      -9.362   8.872 -20.053  1.00  0.00    +0.027 C 
ATOM     34  C   UNL     1     -10.367   8.267 -20.988  1.00  0.00    +0.027 C 
ENDBRANCH  29  32
ENDBRANCH  24  26
ENDBRANCH   1  19
TORSDOF 6
ENDMDL
MODEL 5
REMARK VINA RESULT:    -7.934      6.224      9.239
REMARK INTER + INTRA:         -11.520
REMARK INTER:                 -10.213
REMARK INTRA:                  -1.307
REMARK UNBOUND:                -0.803
REMARK SMILES COc1cc2nccc(Oc3ccc(NC(=O)NC4CC4)c(Cl)c3)c2cc1C(N)=O
REMARK SMILES IDX 10 1 9 2 3 3 4 4 27 5 5 6 26 7 6 8 25 9 7 10 8 11 2 12 1 13
REMARK SMILES IDX 28 14 29 15 30 16 11 19 12 20 24 21 13 22 22 23 14 24 23 25
REMARK SMILES IDX 15 26 16 27 17 28 18 29 19 32 20 33 21 34
REMARK H PARENT 29 17 29 18 15 30 18 31
ROOT
ATOM      1  O   UNL     1      -4.313  -0.238 -15.217  1.00  0.00    -0.457 OA
ENDROOT
BRANCH   1   2
ATOM      2  C   UNL     1      -3.413  -1.023 -15.906  1.00  0.00    +0.138 A 
ATOM      3  C   UNL     1      -3.938  -5.213 -16.151  1.00  0.00    +0.133 A 
ATOM      4  C   UNL     1      -2.835  -4.555 -16.720  1.00  0.00    +0.076 A 
ATOM      5  C   UNL     1      -4.904  -4.453 -15.468  1.00  0.00    +0.082 A 
ATOM      6  C   UNL     1      -2.659  -3.179 -16.637  1.00  0.00    +0.078 A 
ATOM      7  C   UNL     1      -4.735  -3.061 -15.380  1.00  0.00    +0.032 A 
ATOM      8  N   UNL     1      -1.572  -2.632 -17.208  1.00  0.00    -0.256 NA
ATOM      9  C   UNL     1      -3.622  -2.415 -15.959  1.00  0.00    +0.044 A 
ATOM     10  C   UNL     1      -1.397  -1.296 -17.114  1.00  0.00    +0.115 A 
ATOM     11  C   UNL     1      -2.277  -0.453 -16.471  1.00  0.00    +0.068 A 
BRANCH   3  12
ATOM     12  O   UNL     1      -4.122  -6.572 -16.228  1.00  0.00    -0.496 OA
ATOM     13  C   UNL     1      -4.074  -7.183 -17.513  1.00  0.00    +0.278 C 
ENDBRANCH   3  12
BRANCH   5  14
ATOM     14  C   UNL     1      -6.129  -5.008 -14.810  1.00  0.00    +0.252 C 
ATOM     15  N   UNL     1      -6.778  -6.046 -15.410  1.00  0.00    -0.365 N 
ATOM     16  O   UNL     1      -6.555  -4.550 -13.755  1.00  0.00    -0.269 OA
ATOM     17  H   UNL     1      -7.608  -6.417 -14.970  1.00  0.00    +0.159 HD
ATOM     18  H   UNL     1      -6.454  -6.439 -16.285  1.00  0.00    +0.159 HD
ENDBRANCH   5  14
ENDBRANCH   1   2
BRANCH   1  19
ATOM     19  C   UNL     1      -5.116   0.602 -15.956  1.00  0.00    +0.129 A 
ATOM     20  C   UNL     1      -6.233   0.170 -16.671  1.00  0.00    +0.049 A 
ATOM     21  C   UNL     1      -4.803   1.959 -15.907  1.00  0.00    +0.069 A 
ATOM     22  C   UNL     1      -7.017   1.091 -17.377  1.00  0.00    +0.031 A 
ATOM     23  C   UNL     1      -5.589   2.875 -16.610  1.00  0.00    +0.068 A 
ATOM     24  C   UNL     1      -6.701   2.453 -17.364  1.00  0.00    +0.061 A 
ATOM     25 Cl   UNL     1      -5.153   4.550 -16.530  1.00  0.00    -0.082 Cl
BRANCH  24  26
ATOM     26  N   UNL     1      -7.461   3.428 -18.051  1.00  0.00    -0.307 N 
ATOM     27  C   UNL     1      -8.475   4.217 -17.552  1.00  0.00    +0.319 C 
ATOM     28  O   UNL     1      -8.962   4.148 -16.430  1.00  0.00    -0.248 OA
ATOM     29  N   UNL     1      -8.915   5.116 -18.511  1.00  0.00    -0.335 N 
ATOM     30  H   UNL     1      -7.345   3.433 -19.055  1.00  0.00    +0.171 HD
ATOM     31  H   UNL     1      -8.246   5.361 -19.225  1.00  0.00    +0.165 HD
BRANCH  29  32
ATOM     32  C   UNL     1      -9.935   6.078 -18.220  1.00  0.00    +0.084 C 
ATOM     33  C   UNL     1      -9.585   7.399 -17.593  1.00  0.00    +0.027 C 
ATOM     34  C   UNL     1     -10.040   7.346 -19.022  1.00  0.00    +0.027 C 
ENDBRANCH  29  32
ENDBRANCH  24  26
ENDBRANCH   1  19
TORSDOF 6
ENDMDL
MODEL 6
REMARK VINA RESULT:    -7.882      3.743     10.260
REMARK INTER + INTRA:         -11.449
REMARK INTER:                 -11.557
REMARK INTRA:                   0.108
REMARK UNBOUND:                -0.803
REMARK SMILES COc1cc2nccc(Oc3ccc(NC(=O)NC4CC4)c(Cl)c3)c2cc1C(N)=O
REMARK SMILES IDX 10 1 9 2 3 3 4 4 27 5 5 6 26 7 6 8 25 9 7 10 8 11 2 12 1 13
REMARK SMILES IDX 28 14 29 15 30 16 11 19 12 20 24 21 13 22 22 23 14 24 23 25
REMARK SMILES IDX 15 26 16 27 17 28 18 29 19 32 20 33 21 34
REMARK H PARENT 29 17 29 18 15 30 18 31
ROOT
ATOM      1  O   UNL     1     -11.950   2.598 -12.884  1.00  0.00    -0.457 OA
ENDROOT
BRANCH   1   2
ATOM      2  C   UNL     1     -10.983   1.944 -13.617  1.00  0.00    +0.138 A 
ATOM      3  C   UNL     1      -9.172   3.802 -16.958  1.00  0.00    +0.133 A 
ATOM      4  C   UNL     1      -8.861   2.491 -16.561  1.00  0.00    +0.076 A 
ATOM      5  C   UNL     1     -10.127   4.526 -16.222  1.00  0.00    +0.082 A 
ATOM      6  C   UNL     1      -9.457   1.878 -15.466  1.00  0.00    +0.078 A 
ATOM      7  C   UNL     1     -10.735   3.914 -15.112  1.00  0.00    +0.032 A 
ATOM      8  N   UNL     1      -9.102   0.618 -15.160  1.00  0.00    -0.256 NA
ATOM      9  C   UNL     1     -10.409   2.597 -14.725  1.00  0.00    +0.044 A 
ATOM     10  C   UNL     1      -9.694   0.021 -14.102  1.00  0.00    +0.115 A 
ATOM     11  C   UNL     1     -10.640   0.632 -13.309  1.00  0.00    +0.068 A 
BRANCH   3  12
ATOM     12  O   UNL     1      -8.588   4.418 -18.038  1.00  0.00    -0.496 OA
ATOM     13  C   UNL     1      -7.176   4.606 -18.019  1.00  0.00    +0.278 C 
ENDBRANCH   3  12
BRANCH   5  14
ATOM     14  C   UNL     1     -10.564   5.926 -16.520  1.00  0.00    +0.252 C 
ATOM     15  N   UNL     1      -9.611   6.886 -16.685  1.00  0.00    -0.365 N 
ATOM     16  O   UNL     1     -11.751   6.222 -16.616  1.00  0.00    -0.269 OA
ATOM     17  H   UNL     1      -9.905   7.833 -16.881  1.00  0.00    +0.159 HD
ATOM     18  H   UNL     1      -8.624   6.673 -16.604  1.00  0.00    +0.159 HD
ENDBRANCH   5  14
ENDBRANCH   1   2
BRANCH   1  19
ATOM     19  C   UNL     1     -12.560   1.894 -11.868  1.00  0.00    +0.129 A 
ATOM     20  C   UNL     1     -13.930   1.939 -11.613  1.00  0.00    +0.049 A 
ATOM     21  C   UNL     1     -11.739   1.052 -11.121  1.00  0.00    +0.069 A 
ATOM     22  C   UNL     1     -14.479   1.171 -10.578  1.00  0.00    +0.031 A 
ATOM     23  C   UNL     1     -12.291   0.286 -10.092  1.00  0.00    +0.068 A 
ATOM     24  C   UNL     1     -13.666   0.343  -9.798  1.00  0.00    +0.061 A 
ATOM     25 Cl   UNL     1     -11.229  -0.738  -9.182  1.00  0.00    -0.082 Cl
BRANCH  24  26
ATOM     26  N   UNL     1     -14.166  -0.460  -8.747  1.00  0.00    -0.307 N 
ATOM     27  C   UNL     1     -14.753  -1.704  -8.837  1.00  0.00    +0.319 C 
ATOM     28  O   UNL     1     -15.027  -2.304  -9.870  1.00  0.00    -0.248 OA
ATOM     29  N   UNL     1     -15.031  -2.209  -7.576  1.00  0.00    -0.335 N 
ATOM     30  H   UNL     1     -14.236   0.002  -7.850  1.00  0.00    +0.171 HD
ATOM     31  H   UNL     1     -14.457  -1.857  -6.824  1.00  0.00    +0.165 HD
BRANCH  29  32
ATOM     32  C   UNL     1     -15.602  -3.510  -7.402  1.00  0.00    +0.084 C 
ATOM     33  C   UNL     1     -15.169  -4.390  -6.263  1.00  0.00    +0.027 C 
ATOM     34  C   UNL     1     -16.541  -3.785  -6.259  1.00  0.00    +0.027 C 
ENDBRANCH  29  32
ENDBRANCH  24  26
ENDBRANCH   1  19
TORSDOF 6
ENDMDL
MODEL 7
REMARK VINA RESULT:    -7.828      3.917      5.312
REMARK INTER + INTRA:         -11.376
REMARK INTER:                 -10.263
REMARK INTRA:                  -1.113
REMARK UNBOUND:                -0.803
REMARK SMILES COc1cc2nccc(Oc3ccc(NC(=O)NC4CC4)c(Cl)c3)c2cc1C(N)=O
REMARK SMILES IDX 10 1 9 2 3 3 4 4 27 5 5 6 26 7 6 8 25 9 7 10 8 11 2 12 1 13
REMARK SMILES IDX 28 14 29 15 30 16 11 19 12 20 24 21 13 22 22 23 14 24 23 25
REMARK SMILES IDX 15 26 16 27 17 28 18 29 19 32 20 33 21 34
REMARK H PARENT 29 17 29 18 15 30 18 31
ROOT
ATOM      1  O   UNL     1     -10.394  -1.272 -12.856  1.00  0.00    -0.457 OA
ENDROOT
BRANCH   1   2
ATOM      2  C   UNL     1      -9.903  -1.497 -11.587  1.00  0.00    +0.138 A 
ATOM      3  C   UNL     1     -12.369  -0.984  -8.189  1.00  0.00    +0.133 A 
ATOM      4  C   UNL     1     -11.015  -1.347  -8.093  1.00  0.00    +0.076 A 
ATOM      5  C   UNL     1     -12.928  -0.778  -9.462  1.00  0.00    +0.082 A 
ATOM      6  C   UNL     1     -10.202  -1.512  -9.208  1.00  0.00    +0.078 A 
ATOM      7  C   UNL     1     -12.114  -0.944 -10.596  1.00  0.00    +0.032 A 
ATOM      8  N   UNL     1      -8.916  -1.857  -9.023  1.00  0.00    -0.256 NA
ATOM      9  C   UNL     1     -10.756  -1.310 -10.482  1.00  0.00    +0.044 A 
ATOM     10  C   UNL     1      -8.126  -2.004 -10.109  1.00  0.00    +0.115 A 
ATOM     11  C   UNL     1      -8.565  -1.829 -11.404  1.00  0.00    +0.068 A 
BRANCH   3  12
ATOM     12  O   UNL     1     -13.181  -0.819  -7.093  1.00  0.00    -0.496 OA
ATOM     13  C   UNL     1     -12.901   0.262  -6.209  1.00  0.00    +0.278 C 
ENDBRANCH   3  12
BRANCH   5  14
ATOM     14  C   UNL     1     -14.349  -0.389  -9.726  1.00  0.00    +0.252 C 
ATOM     15  N   UNL     1     -15.341  -1.070  -9.087  1.00  0.00    -0.365 N 
ATOM     16  O   UNL     1     -14.633   0.520 -10.499  1.00  0.00    -0.269 OA
ATOM     17  H   UNL     1     -16.301  -0.812  -9.268  1.00  0.00    +0.159 HD
ATOM     18  H   UNL     1     -15.137  -1.829  -8.449  1.00  0.00    +0.159 HD
ENDBRANCH   5  14
ENDBRANCH   1   2
BRANCH   1  19
ATOM     19  C   UNL     1     -10.138  -0.044 -13.425  1.00  0.00    +0.129 A 
ATOM     20  C   UNL     1      -8.948   0.268 -14.082  1.00  0.00    +0.049 A 
ATOM     21  C   UNL     1     -11.174   0.886 -13.381  1.00  0.00    +0.069 A 
ATOM     22  C   UNL     1      -8.774   1.532 -14.660  1.00  0.00    +0.031 A 
ATOM     23  C   UNL     1     -10.998   2.144 -13.962  1.00  0.00    +0.068 A 
ATOM     24  C   UNL     1      -9.791   2.489 -14.600  1.00  0.00    +0.061 A 
ATOM     25 Cl   UNL     1     -12.310   3.273 -13.870  1.00  0.00    -0.082 Cl
BRANCH  24  26
ATOM     26  N   UNL     1      -9.675   3.777 -15.173  1.00  0.00    -0.307 N 
ATOM     27  C   UNL     1      -9.445   4.098 -16.494  1.00  0.00    +0.319 C 
ATOM     28  O   UNL     1      -9.210   3.310 -17.402  1.00  0.00    -0.248 OA
ATOM     29  N   UNL     1      -9.486   5.471 -16.679  1.00  0.00    -0.335 N 
ATOM     30  H   UNL     1      -9.601   4.536 -14.510  1.00  0.00    +0.171 HD
ATOM     31  H   UNL     1     -10.037   5.990 -16.011  1.00  0.00    +0.165 HD
BRANCH  29  32
ATOM     32  C   UNL     1      -9.321   6.054 -17.977  1.00  0.00    +0.084 C 
ATOM     33  C   UNL     1     -10.518   6.439 -18.801  1.00  0.00    +0.027 C 
ATOM     34  C   UNL     1      -9.643   7.505 -18.209  1.00  0.00    +0.027 C 
ENDBRANCH  29  32
ENDBRANCH  24  26
ENDBRANCH   1  19
TORSDOF 6
ENDMDL
MODEL 8
REMARK VINA RESULT:    -7.812      3.226     10.177
REMARK INTER + INTRA:         -11.355
REMARK INTER:                 -11.582
REMARK INTRA:                   0.227
REMARK UNBOUND:                -0.803
REMARK SMILES COc1cc2nccc(Oc3ccc(NC(=O)NC4CC4)c(Cl)c3)c2cc1C(N)=O
REMARK SMILES IDX 10 1 9 2 3 3 4 4 27 5 5 6 26 7 6 8 25 9 7 10 8 11 2 12 1 13
REMARK SMILES IDX 28 14 29 15 30 16 11 19 12 20 24 21 13 22 22 23 14 24 23 25
REMARK SMILES IDX 15 26 16 27 17 28 18 29 19 32 20 33 21 34
REMARK H PARENT 29 17 29 18 15 30 18 31
ROOT
ATOM      1  O   UNL     1     -10.885   1.820 -13.662  1.00  0.00    -0.457 OA
ENDROOT
BRANCH   1   2
ATOM      2  C   UNL     1     -11.130   3.009 -14.317  1.00  0.00    +0.138 A 
ATOM      3  C   UNL     1      -8.552   4.359 -17.387  1.00  0.00    +0.133 A 
ATOM      4  C   UNL     1      -9.663   5.101 -16.952  1.00  0.00    +0.076 A 
ATOM      5  C   UNL     1      -8.280   3.123 -16.776  1.00  0.00    +0.082 A 
ATOM      6  C   UNL     1     -10.509   4.660 -15.941  1.00  0.00    +0.078 A 
ATOM      7  C   UNL     1      -9.130   2.669 -15.753  1.00  0.00    +0.032 A 
ATOM      8  N   UNL     1     -11.548   5.436 -15.586  1.00  0.00    -0.256 NA
ATOM      9  C   UNL     1     -10.243   3.424 -15.330  1.00  0.00    +0.044 A 
ATOM     10  C   UNL     1     -12.360   5.010 -14.594  1.00  0.00    +0.115 A 
ATOM     11  C   UNL     1     -12.191   3.817 -13.925  1.00  0.00    +0.068 A 
BRANCH   3  12
ATOM     12  O   UNL     1      -7.710   4.785 -18.385  1.00  0.00    -0.496 OA
ATOM     13  C   UNL     1      -8.138   5.867 -19.206  1.00  0.00    +0.278 C 
ENDBRANCH   3  12
BRANCH   5  14
ATOM     14  C   UNL     1      -7.136   2.222 -17.127  1.00  0.00    +0.252 C 
ATOM     15  N   UNL     1      -5.925   2.782 -17.403  1.00  0.00    -0.365 N 
ATOM     16  O   UNL     1      -7.270   1.003 -17.171  1.00  0.00    -0.269 OA
ATOM     17  H   UNL     1      -5.154   2.176 -17.645  1.00  0.00    +0.159 HD
ATOM     18  H   UNL     1      -5.788   3.785 -17.380  1.00  0.00    +0.159 HD
ENDBRANCH   5  14
ENDBRANCH   1   2
BRANCH   1  19
ATOM     19  C   UNL     1     -11.686   1.515 -12.583  1.00  0.00    +0.129 A 
ATOM     20  C   UNL     1     -12.988   1.992 -12.429  1.00  0.00    +0.049 A 
ATOM     21  C   UNL     1     -11.156   0.625 -11.652  1.00  0.00    +0.069 A 
ATOM     22  C   UNL     1     -13.749   1.614 -11.317  1.00  0.00    +0.031 A 
ATOM     23  C   UNL     1     -11.920   0.247 -10.545  1.00  0.00    +0.068 A 
ATOM     24  C   UNL     1     -13.223   0.745 -10.356  1.00  0.00    +0.061 A 
ATOM     25 Cl   UNL     1     -11.213  -0.852  -9.406  1.00  0.00    -0.082 Cl
BRANCH  24  26
ATOM     26  N   UNL     1     -13.949   0.322  -9.218  1.00  0.00    -0.307 N 
ATOM     27  C   UNL     1     -14.649  -0.853  -9.049  1.00  0.00    +0.319 C 
ATOM     28  O   UNL     1     -14.840  -1.713  -9.901  1.00  0.00    -0.248 OA
ATOM     29  N   UNL     1     -15.152  -0.944  -7.760  1.00  0.00    -0.335 N 
ATOM     30  H   UNL     1     -14.092   1.032  -8.513  1.00  0.00    +0.171 HD
ATOM     31  H   UNL     1     -14.654  -0.422  -7.054  1.00  0.00    +0.165 HD
BRANCH  29  32
ATOM     32  C   UNL     1     -15.881  -2.097  -7.323  1.00  0.00    +0.084 C 
ATOM     33  C   UNL     1     -16.210  -2.287  -5.869  1.00  0.00    +0.027 C 
ATOM     34  C   UNL     1     -17.302  -1.966  -6.846  1.00  0.00    +0.027 C 
ENDBRANCH  29  32
ENDBRANCH  24  26
ENDBRANCH   1  19
TORSDOF 6
ENDMDL
MODEL 9
REMARK VINA RESULT:    -7.790      4.664      6.204
REMARK INTER + INTRA:         -11.325
REMARK INTER:                 -10.535
REMARK INTRA:                  -0.790
REMARK UNBOUND:                -0.803
REMARK SMILES COc1cc2nccc(Oc3ccc(NC(=O)NC4CC4)c(Cl)c3)c2cc1C(N)=O
REMARK SMILES IDX 10 1 9 2 3 3 4 4 27 5 5 6 26 7 6 8 25 9 7 10 8 11 2 12 1 13
REMARK SMILES IDX 28 14 29 15 30 16 11 19 12 20 24 21 13 22 22 23 14 24 23 25
REMARK SMILES IDX 15 26 16 27 17 28 18 29 19 32 20 33 21 34
REMARK H PARENT 29 17 29 18 15 30 18 31
ROOT
ATOM      1  O   UNL     1     -12.741  -0.032 -10.746  1.00  0.00    -0.457 OA
ENDROOT
BRANCH   1   2
ATOM      2  C   UNL     1     -13.312   0.353  -9.551  1.00  0.00    +0.138 A 
ATOM      3  C   UNL     1     -11.054   0.352  -5.974  1.00  0.00    +0.133 A 
ATOM      4  C   UNL     1     -12.416   0.698  -6.009  1.00  0.00    +0.076 A 
ATOM      5  C   UNL     1     -10.416  -0.013  -7.172  1.00  0.00    +0.082 A 
ATOM      6  C   UNL     1     -13.160   0.695  -7.183  1.00  0.00    +0.078 A 
ATOM      7  C   UNL     1     -11.160  -0.018  -8.364  1.00  0.00    +0.032 A 
ATOM      8  N   UNL     1     -14.459   1.037  -7.124  1.00  0.00    -0.256 NA
ATOM      9  C   UNL     1     -12.526   0.334  -8.382  1.00  0.00    +0.044 A 
ATOM     10  C   UNL     1     -15.182   1.020  -8.265  1.00  0.00    +0.115 A 
ATOM     11  C   UNL     1     -14.663   0.680  -9.495  1.00  0.00    +0.068 A 
BRANCH   3  12
ATOM     12  O   UNL     1     -10.310   0.353  -4.820  1.00  0.00    -0.496 OA
ATOM     13  C   UNL     1     -10.338  -0.815  -4.004  1.00  0.00    +0.278 C 
ENDBRANCH   3  12
BRANCH   5  14
ATOM     14  C   UNL     1      -8.976  -0.407  -7.295  1.00  0.00    +0.252 C 
ATOM     15  N   UNL     1      -8.021   0.497  -6.938  1.00  0.00    -0.365 N 
ATOM     16  O   UNL     1      -8.647  -1.513  -7.709  1.00  0.00    -0.269 OA
ATOM     17  H   UNL     1      -7.049   0.234  -7.026  1.00  0.00    +0.159 HD
ATOM     18  H   UNL     1      -8.264   1.420  -6.600  1.00  0.00    +0.159 HD
ENDBRANCH   5  14
ENDBRANCH   1   2
BRANCH   1  19
ATOM     19  C   UNL     1     -12.286   0.965 -11.581  1.00  0.00    +0.129 A 
ATOM     20  C   UNL     1     -10.966   1.061 -12.020  1.00  0.00    +0.049 A 
ATOM     21  C   UNL     1     -13.241   1.869 -12.043  1.00  0.00    +0.069 A 
ATOM     22  C   UNL     1     -10.586   2.089 -12.892  1.00  0.00    +0.031 A 
ATOM     23  C   UNL     1     -12.859   2.891 -12.914  1.00  0.00    +0.068 A 
ATOM     24  C   UNL     1     -11.524   3.023 -13.342  1.00  0.00    +0.061 A 
ATOM     25 Cl   UNL     1     -14.079   3.999 -13.453  1.00  0.00    -0.082 Cl
BRANCH  24  26
ATOM     26  N   UNL     1     -11.200   4.076 -14.229  1.00  0.00    -0.307 N 
ATOM     27  C   UNL     1     -10.505   3.999 -15.417  1.00  0.00    +0.319 C 
ATOM     28  O   UNL     1      -9.962   3.002 -15.876  1.00  0.00    -0.248 OA
ATOM     29  N   UNL     1     -10.468   5.235 -16.045  1.00  0.00    -0.335 N 
ATOM     30  H   UNL     1     -11.367   5.006 -13.869  1.00  0.00    +0.171 HD
ATOM     31  H   UNL     1     -11.220   5.868 -15.817  1.00  0.00    +0.165 HD
BRANCH  29  32
ATOM     32  C   UNL     1      -9.840   5.404 -17.321  1.00  0.00    +0.084 C 
ATOM     33  C   UNL     1     -10.363   6.417 -18.302  1.00  0.00    +0.027 C 
ATOM     34  C   UNL     1      -9.046   6.646 -17.621  1.00  0.00    +0.027 C 
ENDBRANCH  29  32
ENDBRANCH  24  26
ENDBRANCH   1  19
TORSDOF 6
ENDMDL
MODEL 10
REMARK VINA RESULT:    -7.670      1.847      2.270
REMARK INTER + INTRA:         -11.163
REMARK INTER:                 -10.060
REMARK INTRA:                  -1.103
REMARK UNBOUND:                -0.803
REMARK SMILES COc1cc2nccc(Oc3ccc(NC(=O)NC4CC4)c(Cl)c3)c2cc1C(N)=O
REMARK SMILES IDX 10 1 9 2 3 3 4 4 27 5 5 6 26 7 6 8 25 9 7 10 8 11 2 12 1 13
REMARK SMILES IDX 28 14 29 15 30 16 11 19 12 20 24 21 13 22 22 23 14 24 23 25
REMARK SMILES IDX 15 26 16 27 17 28 18 29 19 32 20 33 21 34
REMARK H PARENT 29 17 29 18 15 30 18 31
ROOT
ATOM      1  O   UNL     1      -9.396  -0.377 -14.529  1.00  0.00    -0.457 OA
ENDROOT
BRANCH   1   2
ATOM      2  C   UNL     1     -10.167   0.529 -13.831  1.00  0.00    +0.138 A 
ATOM      3  C   UNL     1     -11.926  -0.524 -10.130  1.00  0.00    +0.133 A 
ATOM      4  C   UNL     1     -12.122   0.731 -10.731  1.00  0.00    +0.076 A 
ATOM      5  C   UNL     1     -11.118  -1.471 -10.784  1.00  0.00    +0.082 A 
ATOM      6  C   UNL     1     -11.548   1.077 -11.948  1.00  0.00    +0.078 A 
ATOM      7  C   UNL     1     -10.533  -1.129 -12.016  1.00  0.00    +0.032 A 
ATOM      8  N   UNL     1     -11.792   2.299 -12.452  1.00  0.00    -0.256 NA
ATOM      9  C   UNL     1     -10.738   0.136 -12.604  1.00  0.00    +0.044 A 
ATOM     10  C   UNL     1     -11.244   2.627 -13.642  1.00  0.00    +0.115 A 
ATOM     11  C   UNL     1     -10.436   1.782 -14.371  1.00  0.00    +0.068 A 
BRANCH   3  12
ATOM     12  O   UNL     1     -12.487  -0.876  -8.927  1.00  0.00    -0.496 OA
ATOM     13  C   UNL     1     -13.896  -1.079  -8.879  1.00  0.00    +0.278 C 
ENDBRANCH   3  12
BRANCH   5  14
ATOM     14  C   UNL     1     -10.817  -2.846 -10.273  1.00  0.00    +0.252 C 
ATOM     15  N   UNL     1     -11.832  -3.752 -10.202  1.00  0.00    -0.365 N 
ATOM     16  O   UNL     1      -9.686  -3.166  -9.921  1.00  0.00    -0.269 OA
ATOM     17  H   UNL     1     -11.631  -4.678  -9.853  1.00  0.00    +0.159 HD
ATOM     18  H   UNL     1     -12.776  -3.513 -10.480  1.00  0.00    +0.159 HD
ENDBRANCH   5  14
ENDBRANCH   1   2
BRANCH   1  19
ATOM     19  C   UNL     1      -8.189   0.067 -15.021  1.00  0.00    +0.129 A 
ATOM     20  C   UNL     1      -7.014   0.097 -14.270  1.00  0.00    +0.049 A 
ATOM     21  C   UNL     1      -8.166   0.433 -16.365  1.00  0.00    +0.069 A 
ATOM     22  C   UNL     1      -5.818   0.536 -14.851  1.00  0.00    +0.031 A 
ATOM     23  C   UNL     1      -6.970   0.867 -16.942  1.00  0.00    +0.068 A 
ATOM     24  C   UNL     1      -5.781   0.935 -16.191  1.00  0.00    +0.061 A 
ATOM     25 Cl   UNL     1      -6.993   1.323 -18.614  1.00  0.00    -0.082 Cl
BRANCH  24  26
ATOM     26  N   UNL     1      -4.602   1.379 -16.832  1.00  0.00    -0.307 N 
ATOM     27  C   UNL     1      -3.717   0.637 -17.585  1.00  0.00    +0.319 C 
ATOM     28  O   UNL     1      -3.753  -0.575 -17.761  1.00  0.00    -0.248 OA
ATOM     29  N   UNL     1      -2.729   1.448 -18.122  1.00  0.00    -0.335 N 
ATOM     30  H   UNL     1      -4.299   2.310 -16.578  1.00  0.00    +0.171 HD
ATOM     31  H   UNL     1      -2.975   2.418 -18.249  1.00  0.00    +0.165 HD
BRANCH  29  32
ATOM     32  C   UNL     1      -1.715   0.917 -18.983  1.00  0.00    +0.084 C 
ATOM     33  C   UNL     1      -2.003   0.655 -20.435  1.00  0.00    +0.027 C 
ATOM     34  C   UNL     1      -1.088   1.778 -20.045  1.00  0.00    +0.027 C 
ENDBRANCH  29  32
ENDBRANCH  24  26
ENDBRANCH   1  19
TORSDOF 6
ENDMDL
