MODEL 1
REMARK VINA RESULT:    -8.139      0.000      0.000
REMARK INTER + INTRA:         -12.556
REMARK INTER:                 -11.470
REMARK INTRA:                  -1.086
REMARK UNBOUND:                -1.086
REMARK SMILES CCN(CC)CCNC(=O)c1c(C)[nH]c(/C=C2\C(=O)Nc3ccc(F)cc32)c1C
REMARK SMILES IDX 7 1 6 2 3 3 2 4 1 5 4 6 5 7 8 8 9 9 10 10 11 12 12 13 28 14
REMARK SMILES IDX 14 15 15 16 13 17 29 18 16 20 17 21 18 22 27 23 19 24 20 25
REMARK SMILES IDX 26 26 21 27 24 28 22 29 23 30 25 32
REMARK H PARENT 8 11 14 19 20 31
ROOT
ATOM      1  C   UNL     1     -11.567  -1.340 -10.161  1.00  0.00    +0.131 C 
ENDROOT
BRANCH   1   2
ATOM      2  C   UNL     1     -12.571  -0.567  -9.281  1.00  0.00    +0.105 C 
BRANCH   2   3
ATOM      3  N   UNL     1     -13.961  -0.547  -9.786  1.00  0.00    -0.302 NA
BRANCH   3   4
ATOM      4  C   UNL     1     -14.470   0.836  -9.775  1.00  0.00    +0.081 C 
ATOM      5  C   UNL     1     -14.105   1.642 -11.017  1.00  0.00    +0.021 C 
ENDBRANCH   3   4
BRANCH   3   6
ATOM      6  C   UNL     1     -14.850  -1.519  -9.133  1.00  0.00    +0.081 C 
ATOM      7  C   UNL     1     -14.624  -2.987  -9.480  1.00  0.00    +0.021 C 
ENDBRANCH   3   6
ENDBRANCH   2   3
ENDBRANCH   1   2
BRANCH   1   8
ATOM      8  N   UNL     1     -10.753  -0.457 -10.975  1.00  0.00    -0.351 N 
ATOM      9  C   UNL     1     -10.421  -0.764 -12.275  1.00  0.00    +0.253 C 
ATOM     10  O   UNL     1     -10.747  -1.816 -12.816  1.00  0.00    -0.269 OA
ATOM     11  H   UNL     1     -10.637   0.501 -10.681  1.00  0.00    +0.163 HD
BRANCH   9  12
ATOM     12  C   UNL     1      -9.705   0.300 -12.989  1.00  0.00    +0.063 A 
ATOM     13  C   UNL     1      -8.332   0.438 -13.147  1.00  0.00    +0.025 A 
ATOM     14  C   UNL     1     -10.310   1.395 -13.707  1.00  0.00    -0.013 A 
ATOM     15  N   UNL     1      -8.109   1.579 -13.880  1.00  0.00    -0.358 N 
ATOM     16  C   UNL     1      -9.289   2.169 -14.252  1.00  0.00    +0.043 A 
ATOM     17  C   UNL     1      -7.183  -0.405 -12.721  1.00  0.00    +0.065 C 
ATOM     18  C   UNL     1     -11.780   1.626 -13.828  1.00  0.00    +0.047 C 
ATOM     19  H   UNL     1      -7.184   1.916 -14.132  1.00  0.00    +0.166 HD
BRANCH  16  20
ATOM     20  C   UNL     1      -9.334   3.341 -15.061  1.00  0.00    +0.041 C 
ATOM     21  C   UNL     1      -8.758   3.588 -16.249  1.00  0.00    +0.051 C 
ATOM     22  C   UNL     1      -7.877   2.729 -17.126  1.00  0.00    +0.256 C 
ATOM     23  C   UNL     1      -8.904   4.877 -16.958  1.00  0.00    +0.014 A 
ATOM     24  O   UNL     1      -7.503   1.587 -16.935  1.00  0.00    -0.269 OA
ATOM     25  N   UNL     1      -7.573   3.511 -18.227  1.00  0.00    -0.321 N 
ATOM     26  C   UNL     1      -9.581   6.050 -16.672  1.00  0.00    +0.050 A 
ATOM     27  C   UNL     1      -8.165   4.764 -18.141  1.00  0.00    +0.049 A 
ATOM     28  C   UNL     1      -9.494   7.091 -17.597  1.00  0.00    +0.123 A 
ATOM     29  C   UNL     1      -8.071   5.786 -19.067  1.00  0.00    +0.030 A 
ATOM     30  C   UNL     1      -8.752   6.970 -18.782  1.00  0.00    +0.041 A 
ATOM     31  H   UNL     1      -6.994   3.182 -18.985  1.00  0.00    +0.170 HD
ATOM     32  F   UNL     1     -10.137   8.238 -17.349  1.00  0.00    -0.207 F 
ENDBRANCH  16  20
ENDBRANCH   9  12
ENDBRANCH   1   8
TORSDOF 7
ENDMDL
MODEL 2
REMARK VINA RESULT:    -8.063      3.389      9.890
REMARK INTER + INTRA:         -12.449
REMARK INTER:                 -12.370
REMARK INTRA:                  -0.080
REMARK UNBOUND:                -1.086
REMARK SMILES CCN(CC)CCNC(=O)c1c(C)[nH]c(/C=C2\C(=O)Nc3ccc(F)cc32)c1C
REMARK SMILES IDX 7 1 6 2 3 3 2 4 1 5 4 6 5 7 8 8 9 9 10 10 11 12 12 13 28 14
REMARK SMILES IDX 14 15 15 16 13 17 29 18 16 20 17 21 18 22 27 23 19 24 20 25
REMARK SMILES IDX 26 26 21 27 24 28 22 29 23 30 25 32
REMARK H PARENT 8 11 14 19 20 31
ROOT
ATOM      1  C   UNL     1      -8.867   5.132 -18.896  1.00  0.00    +0.131 C 
ENDROOT
BRANCH   1   2
ATOM      2  C   UNL     1      -8.465   6.615 -18.770  1.00  0.00    +0.105 C 
BRANCH   2   3
ATOM      3  N   UNL     1      -9.033   7.509 -19.803  1.00  0.00    -0.302 NA
BRANCH   3   4
ATOM      4  C   UNL     1      -9.488   8.762 -19.176  1.00  0.00    +0.081 C 
ATOM      5  C   UNL     1      -8.742  10.003 -19.657  1.00  0.00    +0.021 C 
ENDBRANCH   3   4
BRANCH   3   6
ATOM      6  C   UNL     1     -10.040   6.868 -20.661  1.00  0.00    +0.081 C 
ATOM      7  C   UNL     1     -10.227   7.465 -22.053  1.00  0.00    +0.021 C 
ENDBRANCH   3   6
ENDBRANCH   2   3
ENDBRANCH   1   2
BRANCH   1   8
ATOM      8  N   UNL     1      -9.603   4.660 -17.738  1.00  0.00    -0.351 N 
ATOM      9  C   UNL     1      -8.979   4.026 -16.686  1.00  0.00    +0.253 C 
ATOM     10  O   UNL     1      -7.778   3.776 -16.677  1.00  0.00    -0.269 OA
ATOM     11  H   UNL     1     -10.533   5.017 -17.577  1.00  0.00    +0.163 HD
BRANCH   9  12
ATOM     12  C   UNL     1      -9.854   3.736 -15.544  1.00  0.00    +0.063 A 
ATOM     13  C   UNL     1     -10.978   4.444 -15.137  1.00  0.00    +0.025 A 
ATOM     14  C   UNL     1      -9.730   2.616 -14.644  1.00  0.00    -0.013 A 
ATOM     15  N   UNL     1     -11.483   3.819 -14.023  1.00  0.00    -0.358 N 
ATOM     16  C   UNL     1     -10.762   2.697 -13.712  1.00  0.00    +0.043 A 
ATOM     17  C   UNL     1     -11.672   5.634 -15.698  1.00  0.00    +0.065 C 
ATOM     18  C   UNL     1      -8.669   1.569 -14.728  1.00  0.00    +0.047 C 
ATOM     19  H   UNL     1     -12.305   4.142 -13.519  1.00  0.00    +0.166 HD
BRANCH  16  20
ATOM     20  C   UNL     1     -11.110   1.841 -12.627  1.00  0.00    +0.041 C 
ATOM     21  C   UNL     1     -12.289   1.680 -12.004  1.00  0.00    +0.051 C 
ATOM     22  C   UNL     1     -13.633   2.334 -12.231  1.00  0.00    +0.256 C 
ATOM     23  C   UNL     1     -12.479   0.742 -10.878  1.00  0.00    +0.014 A 
ATOM     24  O   UNL     1     -13.937   3.167 -13.064  1.00  0.00    -0.269 OA
ATOM     25  N   UNL     1     -14.478   1.783 -11.284  1.00  0.00    -0.321 N 
ATOM     26  C   UNL     1     -11.637  -0.134 -10.216  1.00  0.00    +0.050 A 
ATOM     27  C   UNL     1     -13.819   0.854 -10.490  1.00  0.00    +0.049 A 
ATOM     28  C   UNL     1     -12.174  -0.883  -9.168  1.00  0.00    +0.123 A 
ATOM     29  C   UNL     1     -14.365   0.118  -9.455  1.00  0.00    +0.030 A 
ATOM     30  C   UNL     1     -13.518  -0.766  -8.785  1.00  0.00    +0.041 A 
ATOM     31  H   UNL     1     -15.451   2.041 -11.208  1.00  0.00    +0.170 HD
ATOM     32  F   UNL     1     -11.384  -1.739  -8.508  1.00  0.00    -0.207 F 
ENDBRANCH  16  20
ENDBRANCH   9  12
ENDBRANCH   1   8
TORSDOF 7
ENDMDL
MODEL 3
REMARK VINA RESULT:    -8.061      3.346      9.723
REMARK INTER + INTRA:         -12.445
REMARK INTER:                 -11.692
REMARK INTRA:                  -0.753
REMARK UNBOUND:                -1.086
REMARK SMILES CCN(CC)CCNC(=O)c1c(C)[nH]c(/C=C2\C(=O)Nc3ccc(F)cc32)c1C
REMARK SMILES IDX 7 1 6 2 3 3 2 4 1 5 4 6 5 7 8 8 9 9 10 10 11 12 12 13 28 14
REMARK SMILES IDX 14 15 15 16 13 17 29 18 16 20 17 21 18 22 27 23 19 24 20 25
REMARK SMILES IDX 26 26 21 27 24 28 22 29 23 30 25 32
REMARK H PARENT 8 11 14 19 20 31
ROOT
ATOM      1  C   UNL     1     -10.824   5.631 -18.698  1.00  0.00    +0.131 C 
ENDROOT
BRANCH   1   2
ATOM      2  C   UNL     1      -9.587   6.421 -19.169  1.00  0.00    +0.105 C 
BRANCH   2   3
ATOM      3  N   UNL     1      -9.878   7.738 -19.776  1.00  0.00    -0.302 NA
BRANCH   3   4
ATOM      4  C   UNL     1      -9.517   7.714 -21.205  1.00  0.00    +0.081 C 
ATOM      5  C   UNL     1     -10.666   7.325 -22.129  1.00  0.00    +0.021 C 
ENDBRANCH   3   4
BRANCH   3   6
ATOM      6  C   UNL     1      -9.318   8.877 -19.034  1.00  0.00    +0.081 C 
ATOM      7  C   UNL     1      -8.762  10.026 -19.870  1.00  0.00    +0.021 C 
ENDBRANCH   3   6
ENDBRANCH   2   3
ENDBRANCH   1   2
BRANCH   1   8
ATOM      8  N   UNL     1     -10.525   4.751 -17.583  1.00  0.00    -0.351 N 
ATOM      9  C   UNL     1     -10.628   5.171 -16.275  1.00  0.00    +0.253 C 
ATOM     10  O   UNL     1     -10.930   6.319 -15.966  1.00  0.00    -0.269 OA
ATOM     11  H   UNL     1     -10.488   3.756 -17.748  1.00  0.00    +0.163 HD
BRANCH   9  12
ATOM     12  C   UNL     1     -10.418   4.115 -15.279  1.00  0.00    +0.063 A 
ATOM     13  C   UNL     1      -9.277   3.345 -15.089  1.00  0.00    +0.025 A 
ATOM     14  C   UNL     1     -11.359   3.704 -14.265  1.00  0.00    -0.013 A 
ATOM     15  N   UNL     1      -9.525   2.480 -14.050  1.00  0.00    -0.358 N 
ATOM     16  C   UNL     1     -10.770   2.689 -13.516  1.00  0.00    +0.043 A 
ATOM     17  C   UNL     1      -7.944   3.346 -15.749  1.00  0.00    +0.065 C 
ATOM     18  C   UNL     1     -12.719   4.292 -14.079  1.00  0.00    +0.047 C 
ATOM     19  H   UNL     1      -8.852   1.798 -13.710  1.00  0.00    +0.166 HD
BRANCH  16  20
ATOM     20  C   UNL     1     -11.253   1.954 -12.395  1.00  0.00    +0.041 C 
ATOM     21  C   UNL     1     -11.105   0.654 -12.091  1.00  0.00    +0.051 C 
ATOM     22  C   UNL     1     -10.390  -0.463 -12.816  1.00  0.00    +0.256 C 
ATOM     23  C   UNL     1     -11.683   0.045 -10.875  1.00  0.00    +0.014 A 
ATOM     24  O   UNL     1      -9.767  -0.409 -13.860  1.00  0.00    -0.269 OA
ATOM     25  N   UNL     1     -10.579  -1.591 -12.038  1.00  0.00    -0.321 N 
ATOM     26  C   UNL     1     -12.435   0.543  -9.825  1.00  0.00    +0.050 A 
ATOM     27  C   UNL     1     -11.329  -1.310 -10.904  1.00  0.00    +0.049 A 
ATOM     28  C   UNL     1     -12.816  -0.348  -8.821  1.00  0.00    +0.123 A 
ATOM     29  C   UNL     1     -11.699  -2.203  -9.916  1.00  0.00    +0.030 A 
ATOM     30  C   UNL     1     -12.458  -1.704  -8.857  1.00  0.00    +0.041 A 
ATOM     31  H   UNL     1     -10.201  -2.493 -12.287  1.00  0.00    +0.170 HD
ATOM     32  F   UNL     1     -13.545   0.103  -7.792  1.00  0.00    -0.207 F 
ENDBRANCH  16  20
ENDBRANCH   9  12
ENDBRANCH   1   8
TORSDOF 7
ENDMDL
MODEL 4
REMARK VINA RESULT:    -8.042      2.309      3.306
REMARK INTER + INTRA:         -12.419
REMARK INTER:                 -11.765
REMARK INTRA:                  -0.654
REMARK UNBOUND:                -1.086
REMARK SMILES CCN(CC)CCNC(=O)c1c(C)[nH]c(/C=C2\C(=O)Nc3ccc(F)cc32)c1C
REMARK SMILES IDX 7 1 6 2 3 3 2 4 1 5 4 6 5 7 8 8 9 9 10 10 11 12 12 13 28 14
REMARK SMILES IDX 14 15 15 16 13 17 29 18 16 20 17 21 18 22 27 23 19 24 20 25
REMARK SMILES IDX 26 26 21 27 24 28 22 29 23 30 25 32
REMARK H PARENT 8 11 14 19 20 31
ROOT
ATOM      1  C   UNL     1     -10.143  -2.191  -9.708  1.00  0.00    +0.131 C 
ENDROOT
BRANCH   1   2
ATOM      2  C   UNL     1     -11.346  -2.247  -8.746  1.00  0.00    +0.105 C 
BRANCH   2   3
ATOM      3  N   UNL     1     -12.469  -3.097  -9.196  1.00  0.00    -0.302 NA
BRANCH   3   4
ATOM      4  C   UNL     1     -11.942  -4.294  -9.876  1.00  0.00    +0.081 C 
ATOM      5  C   UNL     1     -12.912  -5.471  -9.902  1.00  0.00    +0.021 C 
ENDBRANCH   3   4
BRANCH   3   6
ATOM      6  C   UNL     1     -13.498  -2.376  -9.961  1.00  0.00    +0.081 C 
ATOM      7  C   UNL     1     -14.909  -2.386  -9.381  1.00  0.00    +0.021 C 
ENDBRANCH   3   6
ENDBRANCH   2   3
ENDBRANCH   1   2
BRANCH   1   8
ATOM      8  N   UNL     1     -10.193  -1.038 -10.588  1.00  0.00    -0.351 N 
ATOM      9  C   UNL     1     -10.543  -1.150 -11.915  1.00  0.00    +0.253 C 
ATOM     10  O   UNL     1     -10.787  -2.225 -12.452  1.00  0.00    -0.269 OA
ATOM     11  H   UNL     1     -10.222  -0.117 -10.177  1.00  0.00    +0.163 HD
BRANCH   9  12
ATOM     12  C   UNL     1     -10.671   0.131 -12.621  1.00  0.00    +0.063 A 
ATOM     13  C   UNL     1     -11.559   1.164 -12.347  1.00  0.00    +0.025 A 
ATOM     14  C   UNL     1      -9.853   0.578 -13.722  1.00  0.00    -0.013 A 
ATOM     15  N   UNL     1     -11.328   2.165 -13.260  1.00  0.00    -0.358 N 
ATOM     16  C   UNL     1     -10.287   1.848 -14.092  1.00  0.00    +0.043 A 
ATOM     17  C   UNL     1     -12.590   1.347 -11.291  1.00  0.00    +0.065 C 
ATOM     18  C   UNL     1      -8.740  -0.210 -14.331  1.00  0.00    +0.047 C 
ATOM     19  H   UNL     1     -11.851   3.036 -13.286  1.00  0.00    +0.166 HD
BRANCH  16  20
ATOM     20  C   UNL     1      -9.814   2.741 -15.098  1.00  0.00    +0.041 C 
ATOM     21  C   UNL     1     -10.314   3.920 -15.502  1.00  0.00    +0.051 C 
ATOM     22  C   UNL     1     -11.526   4.699 -15.044  1.00  0.00    +0.256 C 
ATOM     23  C   UNL     1      -9.696   4.726 -16.576  1.00  0.00    +0.014 A 
ATOM     24  O   UNL     1     -12.323   4.411 -14.172  1.00  0.00    -0.269 OA
ATOM     25  N   UNL     1     -11.551   5.841 -15.826  1.00  0.00    -0.321 N 
ATOM     26  C   UNL     1      -8.578   4.552 -17.374  1.00  0.00    +0.050 A 
ATOM     27  C   UNL     1     -10.490   5.869 -16.722  1.00  0.00    +0.049 A 
ATOM     28  C   UNL     1      -8.288   5.546 -18.310  1.00  0.00    +0.123 A 
ATOM     29  C   UNL     1     -10.215   6.862 -17.643  1.00  0.00    +0.030 A 
ATOM     30  C   UNL     1      -9.090   6.689 -18.450  1.00  0.00    +0.041 A 
ATOM     31  H   UNL     1     -12.262   6.550 -15.730  1.00  0.00    +0.170 HD
ATOM     32  F   UNL     1      -7.215   5.407 -19.097  1.00  0.00    -0.207 F 
ENDBRANCH  16  20
ENDBRANCH   9  12
ENDBRANCH   1   8
TORSDOF 7
ENDMDL
MODEL 5
REMARK VINA RESULT:    -7.986      3.144      9.435
REMARK INTER + INTRA:         -12.340
REMARK INTER:                 -11.410
REMARK INTRA:                  -0.930
REMARK UNBOUND:                -1.086
REMARK SMILES CCN(CC)CCNC(=O)c1c(C)[nH]c(/C=C2\C(=O)Nc3ccc(F)cc32)c1C
REMARK SMILES IDX 7 1 6 2 3 3 2 4 1 5 4 6 5 7 8 8 9 9 10 10 11 12 12 13 28 14
REMARK SMILES IDX 14 15 15 16 13 17 29 18 16 20 17 21 18 22 27 23 19 24 20 25
REMARK SMILES IDX 26 26 21 27 24 28 22 29 23 30 25 32
REMARK H PARENT 8 11 14 19 20 31
ROOT
ATOM      1  C   UNL     1     -10.771   6.046 -16.894  1.00  0.00    +0.131 C 
ENDROOT
BRANCH   1   2
ATOM      2  C   UNL     1      -9.435   6.814 -16.970  1.00  0.00    +0.105 C 
BRANCH   2   3
ATOM      3  N   UNL     1      -8.803   6.840 -18.307  1.00  0.00    -0.302 NA
BRANCH   3   4
ATOM      4  C   UNL     1      -9.654   7.598 -19.242  1.00  0.00    +0.081 C 
ATOM      5  C   UNL     1      -9.250   9.060 -19.402  1.00  0.00    +0.021 C 
ENDBRANCH   3   4
BRANCH   3   6
ATOM      6  C   UNL     1      -8.397   5.517 -18.803  1.00  0.00    +0.081 C 
ATOM      7  C   UNL     1      -7.244   4.839 -18.069  1.00  0.00    +0.021 C 
ENDBRANCH   3   6
ENDBRANCH   2   3
ENDBRANCH   1   2
BRANCH   1   8
ATOM      8  N   UNL     1     -10.814   5.125 -15.774  1.00  0.00    -0.351 N 
ATOM      9  C   UNL     1     -10.363   3.828 -15.879  1.00  0.00    +0.253 C 
ATOM     10  O   UNL     1      -9.942   3.352 -16.929  1.00  0.00    -0.269 OA
ATOM     11  H   UNL     1     -10.936   5.498 -14.844  1.00  0.00    +0.163 HD
BRANCH   9  12
ATOM     12  C   UNL     1     -10.359   3.080 -14.617  1.00  0.00    +0.063 A 
ATOM     13  C   UNL     1      -9.255   2.647 -13.892  1.00  0.00    +0.025 A 
ATOM     14  C   UNL     1     -11.522   2.686 -13.860  1.00  0.00    -0.013 A 
ATOM     15  N   UNL     1      -9.719   1.986 -12.780  1.00  0.00    -0.358 N 
ATOM     16  C   UNL     1     -11.088   2.011 -12.722  1.00  0.00    +0.043 A 
ATOM     17  C   UNL     1      -7.792   2.815 -14.097  1.00  0.00    +0.065 C 
ATOM     18  C   UNL     1     -12.933   2.973 -14.256  1.00  0.00    +0.047 C 
ATOM     19  H   UNL     1      -9.114   1.562 -12.083  1.00  0.00    +0.166 HD
BRANCH  16  20
ATOM     20  C   UNL     1     -11.817   1.437 -11.641  1.00  0.00    +0.041 C 
ATOM     21  C   UNL     1     -11.760   0.196 -11.130  1.00  0.00    +0.051 C 
ATOM     22  C   UNL     1     -10.922  -1.002 -11.514  1.00  0.00    +0.256 C 
ATOM     23  C   UNL     1     -12.600  -0.243  -9.996  1.00  0.00    +0.014 A 
ATOM     24  O   UNL     1     -10.085  -1.088 -12.392  1.00  0.00    -0.269 OA
ATOM     25  N   UNL     1     -11.296  -2.011 -10.643  1.00  0.00    -0.321 N 
ATOM     26  C   UNL     1     -13.556   0.388  -9.218  1.00  0.00    +0.050 A 
ATOM     27  C   UNL     1     -12.271  -1.582  -9.754  1.00  0.00    +0.049 A 
ATOM     28  C   UNL     1     -14.162  -0.357  -8.206  1.00  0.00    +0.123 A 
ATOM     29  C   UNL     1     -12.863  -2.331  -8.754  1.00  0.00    +0.030 A 
ATOM     30  C   UNL     1     -13.828  -1.698  -7.969  1.00  0.00    +0.041 A 
ATOM     31  H   UNL     1     -10.887  -2.933 -10.672  1.00  0.00    +0.170 HD
ATOM     32  F   UNL     1     -15.091   0.225  -7.437  1.00  0.00    -0.207 F 
ENDBRANCH  16  20
ENDBRANCH   9  12
ENDBRANCH   1   8
TORSDOF 7
ENDMDL
MODEL 6
REMARK VINA RESULT:    -7.937      4.800      9.400
REMARK INTER + INTRA:         -12.271
REMARK INTER:                 -11.343
REMARK INTRA:                  -0.928
REMARK UNBOUND:                -1.086
REMARK SMILES CCN(CC)CCNC(=O)c1c(C)[nH]c(/C=C2\C(=O)Nc3ccc(F)cc32)c1C
REMARK SMILES IDX 7 1 6 2 3 3 2 4 1 5 4 6 5 7 8 8 9 9 10 10 11 12 12 13 28 14
REMARK SMILES IDX 14 15 15 16 13 17 29 18 16 20 17 21 18 22 27 23 19 24 20 25
REMARK SMILES IDX 26 26 21 27 24 28 22 29 23 30 25 32
REMARK H PARENT 8 11 14 19 20 31
ROOT
ATOM      1  C   UNL     1     -11.094   6.087 -18.710  1.00  0.00    +0.131 C 
ENDROOT
BRANCH   1   2
ATOM      2  C   UNL     1     -10.001   6.704 -19.606  1.00  0.00    +0.105 C 
BRANCH   2   3
ATOM      3  N   UNL     1     -10.169   8.143 -19.897  1.00  0.00    -0.302 NA
BRANCH   3   4
ATOM      4  C   UNL     1     -10.031   8.374 -21.346  1.00  0.00    +0.081 C 
ATOM      5  C   UNL     1     -10.354   7.154 -22.203  1.00  0.00    +0.021 C 
ENDBRANCH   3   4
BRANCH   3   6
ATOM      6  C   UNL     1      -9.334   9.025 -19.068  1.00  0.00    +0.081 C 
ATOM      7  C   UNL     1      -8.602  10.149 -19.793  1.00  0.00    +0.021 C 
ENDBRANCH   3   6
ENDBRANCH   2   3
ENDBRANCH   1   2
BRANCH   1   8
ATOM      8  N   UNL     1     -10.615   4.935 -17.969  1.00  0.00    -0.351 N 
ATOM      9  C   UNL     1     -10.050   5.056 -16.719  1.00  0.00    +0.253 C 
ATOM     10  O   UNL     1      -9.870   6.139 -16.171  1.00  0.00    -0.269 OA
ATOM     11  H   UNL     1     -10.923   4.016 -18.251  1.00  0.00    +0.163 HD
BRANCH   9  12
ATOM     12  C   UNL     1      -9.744   3.780 -16.062  1.00  0.00    +0.063 A 
ATOM     13  C   UNL     1     -10.429   3.182 -15.012  1.00  0.00    +0.025 A 
ATOM     14  C   UNL     1      -8.681   2.873 -16.423  1.00  0.00    -0.013 A 
ATOM     15  N   UNL     1      -9.792   2.001 -14.717  1.00  0.00    -0.358 N 
ATOM     16  C   UNL     1      -8.742   1.776 -15.568  1.00  0.00    +0.043 A 
ATOM     17  C   UNL     1     -11.654   3.570 -14.263  1.00  0.00    +0.065 C 
ATOM     18  C   UNL     1      -7.705   3.103 -17.529  1.00  0.00    +0.047 C 
ATOM     19  H   UNL     1     -10.089   1.369 -13.977  1.00  0.00    +0.166 HD
BRANCH  16  20
ATOM     20  C   UNL     1      -7.947   0.595 -15.505  1.00  0.00    +0.041 C 
ATOM     21  C   UNL     1      -6.721   0.412 -14.987  1.00  0.00    +0.051 C 
ATOM     22  C   UNL     1      -5.775   1.372 -14.303  1.00  0.00    +0.256 C 
ATOM     23  C   UNL     1      -6.029  -0.893 -15.009  1.00  0.00    +0.014 A 
ATOM     24  O   UNL     1      -5.940   2.554 -14.063  1.00  0.00    -0.269 OA
ATOM     25  N   UNL     1      -4.653   0.627 -13.988  1.00  0.00    -0.321 N 
ATOM     26  C   UNL     1      -6.372  -2.146 -15.489  1.00  0.00    +0.050 A 
ATOM     27  C   UNL     1      -4.788  -0.695 -14.392  1.00  0.00    +0.049 A 
ATOM     28  C   UNL     1      -5.444  -3.176 -15.333  1.00  0.00    +0.123 A 
ATOM     29  C   UNL     1      -3.860  -1.706 -14.231  1.00  0.00    +0.030 A 
ATOM     30  C   UNL     1      -4.203  -2.970 -14.714  1.00  0.00    +0.041 A 
ATOM     31  H   UNL     1      -3.852   1.021 -13.516  1.00  0.00    +0.170 HD
ATOM     32  F   UNL     1      -5.747  -4.399 -15.787  1.00  0.00    -0.207 F 
ENDBRANCH  16  20
ENDBRANCH   9  12
ENDBRANCH   1   8
TORSDOF 7
ENDMDL
MODEL 7
REMARK VINA RESULT:    -7.935      2.767      9.370
REMARK INTER + INTRA:         -12.268
REMARK INTER:                 -11.583
REMARK INTRA:                  -0.685
REMARK UNBOUND:                -1.086
REMARK SMILES CCN(CC)CCNC(=O)c1c(C)[nH]c(/C=C2\C(=O)Nc3ccc(F)cc32)c1C
REMARK SMILES IDX 7 1 6 2 3 3 2 4 1 5 4 6 5 7 8 8 9 9 10 10 11 12 12 13 28 14
REMARK SMILES IDX 14 15 15 16 13 17 29 18 16 20 17 21 18 22 27 23 19 24 20 25
REMARK SMILES IDX 26 26 21 27 24 28 22 29 23 30 25 32
REMARK H PARENT 8 11 14 19 20 31
ROOT
ATOM      1  C   UNL     1      -8.345   5.382 -18.883  1.00  0.00    +0.131 C 
ENDROOT
BRANCH   1   2
ATOM      2  C   UNL     1      -8.935   6.755 -18.503  1.00  0.00    +0.105 C 
BRANCH   2   3
ATOM      3  N   UNL     1      -9.190   7.665 -19.640  1.00  0.00    -0.302 NA
BRANCH   3   4
ATOM      4  C   UNL     1      -9.457   9.024 -19.137  1.00  0.00    +0.081 C 
ATOM      5  C   UNL     1      -8.605  10.106 -19.791  1.00  0.00    +0.021 C 
ENDBRANCH   3   4
BRANCH   3   6
ATOM      6  C   UNL     1     -10.198   7.169 -20.590  1.00  0.00    +0.081 C 
ATOM      7  C   UNL     1      -9.957   7.484 -22.063  1.00  0.00    +0.021 C 
ENDBRANCH   3   6
ENDBRANCH   2   3
ENDBRANCH   1   2
BRANCH   1   8
ATOM      8  N   UNL     1      -8.801   4.323 -18.003  1.00  0.00    -0.351 N 
ATOM      9  C   UNL     1      -7.967   3.731 -17.081  1.00  0.00    +0.253 C 
ATOM     10  O   UNL     1      -6.780   4.021 -16.973  1.00  0.00    -0.269 OA
ATOM     11  H   UNL     1      -9.794   4.188 -17.882  1.00  0.00    +0.163 HD
BRANCH   9  12
ATOM     12  C   UNL     1      -8.629   2.773 -16.187  1.00  0.00    +0.063 A 
ATOM     13  C   UNL     1      -8.364   1.416 -16.055  1.00  0.00    +0.025 A 
ATOM     14  C   UNL     1      -9.666   3.080 -15.233  1.00  0.00    -0.013 A 
ATOM     15  N   UNL     1      -9.224   0.913 -15.108  1.00  0.00    -0.358 N 
ATOM     16  C   UNL     1     -10.010   1.902 -14.576  1.00  0.00    +0.043 A 
ATOM     17  C   UNL     1      -7.359   0.523 -16.691  1.00  0.00    +0.065 C 
ATOM     18  C   UNL     1     -10.244   4.439 -15.012  1.00  0.00    +0.047 C 
ATOM     19  H   UNL     1      -9.244  -0.063 -14.826  1.00  0.00    +0.166 HD
BRANCH  16  20
ATOM     20  C   UNL     1     -10.954   1.651 -13.538  1.00  0.00    +0.041 C 
ATOM     21  C   UNL     1     -10.928   0.734 -12.557  1.00  0.00    +0.051 C 
ATOM     22  C   UNL     1      -9.912  -0.332 -12.217  1.00  0.00    +0.256 C 
ATOM     23  C   UNL     1     -12.004   0.605 -11.553  1.00  0.00    +0.014 A 
ATOM     24  O   UNL     1      -8.861  -0.581 -12.777  1.00  0.00    -0.269 OA
ATOM     25  N   UNL     1     -10.418  -0.987 -11.107  1.00  0.00    -0.321 N 
ATOM     26  C   UNL     1     -13.190   1.285 -11.334  1.00  0.00    +0.050 A 
ATOM     27  C   UNL     1     -11.636  -0.450 -10.710  1.00  0.00    +0.049 A 
ATOM     28  C   UNL     1     -13.982   0.879 -10.260  1.00  0.00    +0.123 A 
ATOM     29  C   UNL     1     -12.410  -0.863  -9.642  1.00  0.00    +0.030 A 
ATOM     30  C   UNL     1     -13.606  -0.179  -9.419  1.00  0.00    +0.041 A 
ATOM     31  H   UNL     1      -9.936  -1.752 -10.660  1.00  0.00    +0.170 HD
ATOM     32  F   UNL     1     -15.135   1.517 -10.023  1.00  0.00    -0.207 F 
ENDBRANCH  16  20
ENDBRANCH   9  12
ENDBRANCH   1   8
TORSDOF 7
ENDMDL
MODEL 8
REMARK VINA RESULT:    -7.868      2.074      3.993
REMARK INTER + INTRA:         -12.174
REMARK INTER:                 -10.824
REMARK INTRA:                  -1.350
REMARK UNBOUND:                -1.086
REMARK SMILES CCN(CC)CCNC(=O)c1c(C)[nH]c(/C=C2\C(=O)Nc3ccc(F)cc32)c1C
REMARK SMILES IDX 7 1 6 2 3 3 2 4 1 5 4 6 5 7 8 8 9 9 10 10 11 12 12 13 28 14
REMARK SMILES IDX 14 15 15 16 13 17 29 18 16 20 17 21 18 22 27 23 19 24 20 25
REMARK SMILES IDX 26 26 21 27 24 28 22 29 23 30 25 32
REMARK H PARENT 8 11 14 19 20 31
ROOT
ATOM      1  C   UNL     1     -15.256  -2.381  -8.832  1.00  0.00    +0.131 C 
ENDROOT
BRANCH   1   2
ATOM      2  C   UNL     1     -14.586  -3.542  -8.070  1.00  0.00    +0.105 C 
BRANCH   2   3
ATOM      3  N   UNL     1     -13.204  -3.855  -8.493  1.00  0.00    -0.302 NA
BRANCH   3   4
ATOM      4  C   UNL     1     -13.201  -5.092  -9.294  1.00  0.00    +0.081 C 
ATOM      5  C   UNL     1     -13.088  -4.857 -10.797  1.00  0.00    +0.021 C 
ENDBRANCH   3   4
BRANCH   3   6
ATOM      6  C   UNL     1     -12.225  -3.848  -7.396  1.00  0.00    +0.081 C 
ATOM      7  C   UNL     1     -12.173  -2.587  -6.539  1.00  0.00    +0.021 C 
ENDBRANCH   3   6
ENDBRANCH   2   3
ENDBRANCH   1   2
BRANCH   1   8
ATOM      8  N   UNL     1     -14.323  -1.671  -9.687  1.00  0.00    -0.351 N 
ATOM      9  C   UNL     1     -13.704  -0.509  -9.285  1.00  0.00    +0.253 C 
ATOM     10  O   UNL     1     -13.932   0.029  -8.206  1.00  0.00    -0.269 OA
ATOM     11  H   UNL     1     -13.926  -2.157 -10.478  1.00  0.00    +0.163 HD
BRANCH   9  12
ATOM     12  C   UNL     1     -12.695  -0.001 -10.221  1.00  0.00    +0.063 A 
ATOM     13  C   UNL     1     -11.403  -0.476 -10.415  1.00  0.00    +0.025 A 
ATOM     14  C   UNL     1     -12.876   1.079 -11.161  1.00  0.00    -0.013 A 
ATOM     15  N   UNL     1     -10.814   0.300 -11.384  1.00  0.00    -0.358 N 
ATOM     16  C   UNL     1     -11.689   1.236 -11.871  1.00  0.00    +0.043 A 
ATOM     17  C   UNL     1     -10.653  -1.614  -9.819  1.00  0.00    +0.065 C 
ATOM     18  C   UNL     1     -14.135   1.865 -11.321  1.00  0.00    +0.047 C 
ATOM     19  H   UNL     1      -9.861   0.168 -11.711  1.00  0.00    +0.166 HD
BRANCH  16  20
ATOM     20  C   UNL     1     -11.339   2.135 -12.920  1.00  0.00    +0.041 C 
ATOM     21  C   UNL     1     -10.509   1.959 -13.961  1.00  0.00    +0.051 C 
ATOM     22  C   UNL     1      -9.673   0.771 -14.379  1.00  0.00    +0.256 C 
ATOM     23  C   UNL     1     -10.252   3.010 -14.967  1.00  0.00    +0.014 A 
ATOM     24  O   UNL     1      -9.585  -0.317 -13.842  1.00  0.00    -0.269 OA
ATOM     25  N   UNL     1      -9.012   1.167 -15.528  1.00  0.00    -0.321 N 
ATOM     26  C   UNL     1     -10.716   4.304 -15.134  1.00  0.00    +0.050 A 
ATOM     27  C   UNL     1      -9.341   2.469 -15.882  1.00  0.00    +0.049 A 
ATOM     28  C   UNL     1     -10.243   5.026 -16.230  1.00  0.00    +0.123 A 
ATOM     29  C   UNL     1      -8.865   3.173 -16.973  1.00  0.00    +0.030 A 
ATOM     30  C   UNL     1      -9.331   4.477 -17.143  1.00  0.00    +0.041 A 
ATOM     31  H   UNL     1      -8.380   0.561 -16.029  1.00  0.00    +0.170 HD
ATOM     32  F   UNL     1     -10.673   6.280 -16.418  1.00  0.00    -0.207 F 
ENDBRANCH  16  20
ENDBRANCH   9  12
ENDBRANCH   1   8
TORSDOF 7
ENDMDL
MODEL 9
REMARK VINA RESULT:    -7.853      3.208      8.792
REMARK INTER + INTRA:         -12.152
REMARK INTER:                 -10.940
REMARK INTRA:                  -1.212
REMARK UNBOUND:                -1.086
REMARK SMILES CCN(CC)CCNC(=O)c1c(C)[nH]c(/C=C2\C(=O)Nc3ccc(F)cc32)c1C
REMARK SMILES IDX 7 1 6 2 3 3 2 4 1 5 4 6 5 7 8 8 9 9 10 10 11 12 12 13 28 14
REMARK SMILES IDX 14 15 15 16 13 17 29 18 16 20 17 21 18 22 27 23 19 24 20 25
REMARK SMILES IDX 26 26 21 27 24 28 22 29 23 30 25 32
REMARK H PARENT 8 11 14 19 20 31
ROOT
ATOM      1  C   UNL     1      -7.744   4.489 -17.664  1.00  0.00    +0.131 C 
ENDROOT
BRANCH   1   2
ATOM      2  C   UNL     1      -8.614   5.761 -17.688  1.00  0.00    +0.105 C 
BRANCH   2   3
ATOM      3  N   UNL     1      -9.730   5.740 -18.658  1.00  0.00    -0.302 NA
BRANCH   3   4
ATOM      4  C   UNL     1      -9.468   6.710 -19.735  1.00  0.00    +0.081 C 
ATOM      5  C   UNL     1      -9.556   8.167 -19.293  1.00  0.00    +0.021 C 
ENDBRANCH   3   4
BRANCH   3   6
ATOM      6  C   UNL     1     -11.060   5.869 -18.044  1.00  0.00    +0.081 C 
ATOM      7  C   UNL     1     -11.109   5.867 -16.519  1.00  0.00    +0.021 C 
ENDBRANCH   3   6
ENDBRANCH   2   3
ENDBRANCH   1   2
BRANCH   1   8
ATOM      8  N   UNL     1      -8.329   3.435 -16.856  1.00  0.00    -0.351 N 
ATOM      9  C   UNL     1      -7.625   2.809 -15.853  1.00  0.00    +0.253 C 
ATOM     10  O   UNL     1      -6.450   3.061 -15.605  1.00  0.00    -0.269 OA
ATOM     11  H   UNL     1      -9.333   3.330 -16.853  1.00  0.00    +0.163 HD
BRANCH   9  12
ATOM     12  C   UNL     1      -8.413   1.863 -15.054  1.00  0.00    +0.063 A 
ATOM     13  C   UNL     1      -8.524   0.490 -15.233  1.00  0.00    +0.025 A 
ATOM     14  C   UNL     1      -9.198   2.186 -13.887  1.00  0.00    -0.013 A 
ATOM     15  N   UNL     1      -9.368   0.009 -14.260  1.00  0.00    -0.358 N 
ATOM     16  C   UNL     1      -9.775   1.009 -13.417  1.00  0.00    +0.043 A 
ATOM     17  C   UNL     1      -7.895  -0.450 -16.199  1.00  0.00    +0.065 C 
ATOM     18  C   UNL     1      -9.341   3.556 -13.310  1.00  0.00    +0.047 C 
ATOM     19  H   UNL     1      -9.625  -0.970 -14.170  1.00  0.00    +0.166 HD
BRANCH  16  20
ATOM     20  C   UNL     1     -10.616   0.765 -12.293  1.00  0.00    +0.041 C 
ATOM     21  C   UNL     1     -11.872   1.178 -12.054  1.00  0.00    +0.051 C 
ATOM     22  C   UNL     1     -12.814   2.028 -12.875  1.00  0.00    +0.256 C 
ATOM     23  C   UNL     1     -12.607   0.835 -10.819  1.00  0.00    +0.014 A 
ATOM     24  O   UNL     1     -12.625   2.524 -13.970  1.00  0.00    -0.269 OA
ATOM     25  N   UNL     1     -13.971   2.133 -12.124  1.00  0.00    -0.321 N 
ATOM     26  C   UNL     1     -12.288   0.090  -9.697  1.00  0.00    +0.050 A 
ATOM     27  C   UNL     1     -13.864   1.441 -10.924  1.00  0.00    +0.049 A 
ATOM     28  C   UNL     1     -13.256  -0.024  -8.698  1.00  0.00    +0.123 A 
ATOM     29  C   UNL     1     -14.833   1.336  -9.943  1.00  0.00    +0.030 A 
ATOM     30  C   UNL     1     -14.514   0.587  -8.810  1.00  0.00    +0.041 A 
ATOM     31  H   UNL     1     -14.779   2.650 -12.437  1.00  0.00    +0.170 HD
ATOM     32  F   UNL     1     -12.978  -0.737  -7.599  1.00  0.00    -0.207 F 
ENDBRANCH  16  20
ENDBRANCH   9  12
ENDBRANCH   1   8
TORSDOF 7
ENDMDL
MODEL 10
REMARK VINA RESULT:    -7.671      1.621      2.414
REMARK INTER + INTRA:         -11.896
REMARK INTER:                 -11.688
REMARK INTRA:                  -0.208
REMARK UNBOUND:                -1.086
REMARK SMILES CCN(CC)CCNC(=O)c1c(C)[nH]c(/C=C2\C(=O)Nc3ccc(F)cc32)c1C
REMARK SMILES IDX 7 1 6 2 3 3 2 4 1 5 4 6 5 7 8 8 9 9 10 10 11 12 12 13 28 14
REMARK SMILES IDX 14 15 15 16 13 17 29 18 16 20 17 21 18 22 27 23 19 24 20 25
REMARK SMILES IDX 26 26 21 27 24 28 22 29 23 30 25 32
REMARK H PARENT 8 11 14 19 20 31
ROOT
ATOM      1  C   UNL     1     -13.178   0.129  -9.299  1.00  0.00    +0.131 C 
ENDROOT
BRANCH   1   2
ATOM      2  C   UNL     1     -12.987  -1.376  -9.025  1.00  0.00    +0.105 C 
BRANCH   2   3
ATOM      3  N   UNL     1     -13.703  -2.278  -9.952  1.00  0.00    -0.302 NA
BRANCH   3   4
ATOM      4  C   UNL     1     -15.039  -2.585  -9.410  1.00  0.00    +0.081 C 
ATOM      5  C   UNL     1     -15.016  -3.201  -8.015  1.00  0.00    +0.021 C 
ENDBRANCH   3   4
BRANCH   3   6
ATOM      6  C   UNL     1     -12.931  -3.464 -10.351  1.00  0.00    +0.081 C 
ATOM      7  C   UNL     1     -11.742  -3.221 -11.276  1.00  0.00    +0.021 C 
ENDBRANCH   3   6
ENDBRANCH   2   3
ENDBRANCH   1   2
BRANCH   1   8
ATOM      8  N   UNL     1     -12.374   0.594 -10.413  1.00  0.00    -0.351 N 
ATOM      9  C   UNL     1     -12.927   1.266 -11.481  1.00  0.00    +0.253 C 
ATOM     10  O   UNL     1     -14.132   1.474 -11.586  1.00  0.00    -0.269 OA
ATOM     11  H   UNL     1     -11.374   0.656 -10.296  1.00  0.00    +0.163 HD
BRANCH   9  12
ATOM     12  C   UNL     1     -11.951   1.777 -12.450  1.00  0.00    +0.063 A 
ATOM     13  C   UNL     1     -10.744   1.199 -12.822  1.00  0.00    +0.025 A 
ATOM     14  C   UNL     1     -12.089   2.975 -13.242  1.00  0.00    -0.013 A 
ATOM     15  N   UNL     1     -10.156   2.021 -13.752  1.00  0.00    -0.358 N 
ATOM     16  C   UNL     1     -10.957   3.094 -14.044  1.00  0.00    +0.043 A 
ATOM     17  C   UNL     1     -10.080  -0.074 -12.433  1.00  0.00    +0.065 C 
ATOM     18  C   UNL     1     -13.260   3.901 -13.189  1.00  0.00    +0.047 C 
ATOM     19  H   UNL     1      -9.255   1.832 -14.184  1.00  0.00    +0.166 HD
BRANCH  16  20
ATOM     20  C   UNL     1     -10.599   4.073 -15.016  1.00  0.00    +0.041 C 
ATOM     21  C   UNL     1      -9.748   3.984 -16.052  1.00  0.00    +0.051 C 
ATOM     22  C   UNL     1      -8.891   2.839 -16.540  1.00  0.00    +0.256 C 
ATOM     23  C   UNL     1      -9.485   5.110 -16.972  1.00  0.00    +0.014 A 
ATOM     24  O   UNL     1      -8.799   1.715 -16.084  1.00  0.00    -0.269 OA
ATOM     25  N   UNL     1      -8.214   3.327 -17.644  1.00  0.00    -0.321 N 
ATOM     26  C   UNL     1      -9.961   6.407 -17.050  1.00  0.00    +0.050 A 
ATOM     27  C   UNL     1      -8.551   4.648 -17.907  1.00  0.00    +0.049 A 
ATOM     28  C   UNL     1      -9.478   7.215 -18.080  1.00  0.00    +0.123 A 
ATOM     29  C   UNL     1      -8.064   5.436 -18.933  1.00  0.00    +0.030 A 
ATOM     30  C   UNL     1      -8.542   6.745 -19.014  1.00  0.00    +0.041 A 
ATOM     31  H   UNL     1      -7.565   2.767 -18.176  1.00  0.00    +0.170 HD
ATOM     32  F   UNL     1      -9.919   8.475 -18.182  1.00  0.00    -0.207 F 
ENDBRANCH  16  20
ENDBRANCH   9  12
ENDBRANCH   1   8
TORSDOF 7
ENDMDL
